 Entering Gaussian System, Link 0=g03
 Initial command:
 /usr/local/chem/g03E01/l1.exe /temp0/tam/Gau-13235.inp -scrdir=/temp0/tam/
 Entering Link 1 = /usr/local/chem/g03E01/l1.exe PID=     13236.
  
 Copyright (c) 1988,1990,1992,1993,1995,1998,2003,2004,2007, Gaussian, Inc.
                  All Rights Reserved.
  
 This is the Gaussian(R) 03 program.  It is based on the
 the Gaussian(R) 98 system (copyright 1998, Gaussian, Inc.),
 the Gaussian(R) 94 system (copyright 1995, Gaussian, Inc.),
 the Gaussian 92(TM) system (copyright 1992, Gaussian, Inc.),
 the Gaussian 90(TM) system (copyright 1990, Gaussian, Inc.),
 the Gaussian 88(TM) system (copyright 1988, Gaussian, Inc.),
 the Gaussian 86(TM) system (copyright 1986, Carnegie Mellon
 University), and the Gaussian 82(TM) system (copyright 1983,
 Carnegie Mellon University). Gaussian is a federally registered
 trademark of Gaussian, Inc.
  
 This software contains proprietary and confidential information,
 including trade secrets, belonging to Gaussian, Inc.
  
 This software is provided under written license and may be
 used, copied, transmitted, or stored only in accord with that
 written license.
  
 The following legend is applicable only to US Government
 contracts under FAR:
  
                    RESTRICTED RIGHTS LEGEND
  
 Use, reproduction and disclosure by the US Government is
 subject to restrictions as set forth in subparagraphs (a)
 and (c) of the Commercial Computer Software - Restricted
 Rights clause in FAR 52.227-19.
  
 Gaussian, Inc.
 340 Quinnipiac St., Bldg. 40, Wallingford CT 06492
  
  
 ---------------------------------------------------------------
 Warning -- This program may not be used in any manner that
 competes with the business of Gaussian, Inc. or will provide
 assistance to any competitor of Gaussian, Inc.  The licensee
 of this program is prohibited from giving any competitor of
 Gaussian, Inc. access to this program.  By using this program,
 the user acknowledges that Gaussian, Inc. is engaged in the
 business of creating and licensing software in the field of
 computational chemistry and represents and warrants to the
 licensee that it is not a competitor of Gaussian, Inc. and that
 it will not use this program in any manner prohibited above.
 ---------------------------------------------------------------
  

 Cite this work as:
 Gaussian 03, Revision E.01,
 M. J. Frisch, G. W. Trucks, H. B. Schlegel, G. E. Scuseria, 
 M. A. Robb, J. R. Cheeseman, J. A. Montgomery, Jr., T. Vreven, 
 K. N. Kudin, J. C. Burant, J. M. Millam, S. S. Iyengar, J. Tomasi, 
 V. Barone, B. Mennucci, M. Cossi, G. Scalmani, N. Rega, 
 G. A. Petersson, H. Nakatsuji, M. Hada, M. Ehara, K. Toyota, 
 R. Fukuda, J. Hasegawa, M. Ishida, T. Nakajima, Y. Honda, O. Kitao, 
 H. Nakai, M. Klene, X. Li, J. E. Knox, H. P. Hratchian, J. B. Cross, 
 V. Bakken, C. Adamo, J. Jaramillo, R. Gomperts, R. E. Stratmann, 
 O. Yazyev, A. J. Austin, R. Cammi, C. Pomelli, J. W. Ochterski, 
 P. Y. Ayala, K. Morokuma, G. A. Voth, P. Salvador, J. J. Dannenberg, 
 V. G. Zakrzewski, S. Dapprich, A. D. Daniels, M. C. Strain, 
 O. Farkas, D. K. Malick, A. D. Rabuck, K. Raghavachari, 
 J. B. Foresman, J. V. Ortiz, Q. Cui, A. G. Baboul, S. Clifford, 
 J. Cioslowski, B. B. Stefanov, G. Liu, A. Liashenko, P. Piskorz, 
 I. Komaromi, R. L. Martin, D. J. Fox, T. Keith, M. A. Al-Laham, 
 C. Y. Peng, A. Nanayakkara, M. Challacombe, P. M. W. Gill, 
 B. Johnson, W. Chen, M. W. Wong, C. Gonzalez, and J. A. Pople, 
 Gaussian, Inc., Wallingford CT, 2004.
 
 ******************************************
 Gaussian 03:  AM64L-G03RevE.01 11-Sep-2007
                17-Jun-2011 
 ******************************************
 %NprocShared=4
 Will use up to    4 processors via shared memory.
 %mem=3750MB
 %chk=S9L-ne-d-01
 --------------------------------------
 # hf/6-311G(d) freq scfcyc=500 scf=xqc
 --------------------------------------
 1/10=4,30=1,38=1/1,3;
 2/17=6,18=5,40=1/2;
 3/5=4,6=6,7=1,11=9,16=1,25=1,30=1/1,2,3;
 4//1;
 5/5=2,7=500,8=3,13=1,38=5/2,8;
 8/6=4,10=90,11=11/1;
 10/13=10/2;
 11/6=2,8=1,9=11,15=111,16=1/1,2,10;
 10/6=1/2;
 6/7=2,8=2,9=2,10=2,18=1,28=1/1;
 7/8=1,10=1,25=1/1,2,3,16;
 1/10=4,30=1/3;
 99//99;
 -----
 si5-c
 -----
 Symbolic Z-matrix:
 Charge =  1 Multiplicity = 2
 Si                    0.00002  -0.1765    1.35121 
 Si                   -0.00011  -2.08955   0. 
 Si                    0.00002   1.85232   0. 
 Si                   -1.9498    0.29515   0. 
 Si                    1.94984   0.29508   0. 
 Si                    0.00002  -0.1765   -1.35121 
 

 GradGradGradGradGradGradGradGradGradGradGradGradGradGradGradGradGradGrad
 Berny optimization.
 Initialization pass.
 Trust Radius=3.00D-01 FncErr=1.00D-07 GrdErr=1.00D-07
 Number of steps in this run=   2 maximum allowed number of steps=   2.
 GradGradGradGradGradGradGradGradGradGradGradGradGradGradGradGradGradGrad

                          Input orientation:                          
 ---------------------------------------------------------------------
 Center     Atomic     Atomic              Coordinates (Angstroms)
 Number     Number      Type              X           Y           Z
 ---------------------------------------------------------------------
    1         14             0        0.000023   -0.176499    1.351205
    2         14             0       -0.000113   -2.089546    0.000000
    3         14             0        0.000023    1.852317    0.000000
    4         14             0       -1.949797    0.295151    0.000000
    5         14             0        1.949842    0.295076    0.000000
    6         14             0        0.000023   -0.176499   -1.351205
 ---------------------------------------------------------------------
                    Distance matrix (angstroms):
                    1          2          3          4          5
     1  Si   0.000000
     2  Si   2.342115   0.000000
     3  Si   2.437591   3.941863   0.000000
     4  Si   2.418679   3.080267   2.495308   0.000000
     5  Si   2.418663   3.080381   2.495354   3.899639   0.000000
     6  Si   2.702410   2.342115   2.437591   2.418679   2.418663
                    6
     6  Si   0.000000
 Stoichiometry    Si6(1+,2)
 Framework group  CS[SG(Si4),X(Si2)]
 Deg. of freedom     8
 Full point group                 CS
 Largest Abelian subgroup         CS      NOp   2
 Largest concise Abelian subgroup CS      NOp   2
                         Standard orientation:                         
 ---------------------------------------------------------------------
 Center     Atomic     Atomic              Coordinates (Angstroms)
 Number     Number      Type              X           Y           Z
 ---------------------------------------------------------------------
    1         14             0        0.000023   -0.176499    1.351205
    2         14             0       -0.000113   -2.089546    0.000000
    3         14             0        0.000023    1.852317    0.000000
    4         14             0       -1.949797    0.295151    0.000000
    5         14             0        1.949842    0.295076    0.000000
    6         14             0        0.000023   -0.176499   -1.351205
 ---------------------------------------------------------------------
 Rotational constants (GHZ):      1.6049730      1.5458883      1.1551908
 Standard basis: 6-311G(d) (5D, 7F)
 There are   102 symmetry adapted basis functions of A'  symmetry.
 There are    54 symmetry adapted basis functions of A"  symmetry.
 Integral buffers will be    131072 words long.
 Raffenetti 2 integral format.
 Two-electron integral symmetry is turned on.
   156 basis functions,   276 primitive gaussians,   162 cartesian basis functions
    42 alpha electrons       41 beta electrons
       nuclear repulsion energy       586.9600993334 Hartrees.
 NAtoms=    6 NActive=    6 NUniq=    5 SFac= 1.08D+00 NAtFMM=   80 NAOKFM=F Big=F
 One-electron integrals computed using PRISM.
 NBasis=   156 RedAO= T  NBF=   102    54
 NBsUse=   156 1.00D-06 NBFU=   102    54
 Harris functional with IExCor=  205 diagonalized for initial guess.
 ExpMin= 6.54D-02 ExpMax= 6.94D+04 ExpMxC= 2.33D+03 IAcc=2 IRadAn=         4 AccDes= 0.00D+00
 HarFok:  IExCor= 205 AccDes= 0.00D+00 IRadAn=         4 IDoV=1
 ScaDFX=  1.000000  1.000000  1.000000  1.000000
 Initial guess orbital symmetries:
 Alpha Orbitals:
       Occupied  (A') (A") (A') (A') (A') (A') (A') (A") (A') (A')
                 (A') (A') (A') (A") (A') (A") (A') (A") (A') (A')
                 (A") (A') (A') (A') (A") (A") (A') (A') (A") (A')
                 (A') (A') (A') (A") (A') (A') (A") (A") (A') (A')
                 (A') (A')
       Virtual   (A") (A') (A") (A') (A") (A') (A') (A') (A') (A')
                 (A") (A") (A") (A') (A") (A') (A') (A') (A') (A")
                 (A') (A') (A") (A') (A') (A') (A") (A") (A') (A")
                 (A') (A') (A') (A") (A') (A") (A') (A") (A') (A")
                 (A") (A') (A') (A') (A") (A') (A') (A") (A') (A")
                 (A') (A') (A") (A') (A') (A") (A') (A") (A') (A')
                 (A') (A") (A') (A") (A') (A") (A') (A') (A") (A")
                 (A') (A") (A') (A") (A') (A') (A') (A") (A") (A')
                 (A') (A') (A') (A") (A') (A') (A") (A') (A') (A')
                 (A') (A') (A') (A') (A") (A") (A") (A") (A') (A')
                 (A') (A") (A") (A') (A") (A') (A') (A') (A') (A')
                 (A") (A') (A') (A')
 Beta  Orbitals:
       Occupied  (A') (A") (A') (A') (A') (A') (A') (A") (A') (A')
                 (A') (A') (A') (A") (A') (A") (A') (A") (A') (A')
                 (A") (A') (A') (A') (A") (A") (A') (A') (A") (A')
                 (A') (A') (A') (A") (A') (A') (A") (A") (A') (A')
                 (A')
       Virtual   (A') (A") (A') (A") (A') (A") (A') (A') (A') (A')
                 (A') (A") (A") (A") (A') (A") (A') (A') (A') (A')
                 (A") (A') (A') (A") (A') (A') (A') (A") (A") (A')
                 (A") (A') (A') (A') (A") (A') (A") (A') (A") (A')
                 (A") (A") (A') (A') (A') (A") (A') (A') (A") (A')
                 (A") (A') (A') (A") (A') (A') (A") (A') (A") (A')
                 (A') (A') (A") (A') (A") (A') (A") (A') (A') (A")
                 (A") (A') (A") (A') (A") (A') (A') (A') (A") (A")
                 (A') (A') (A') (A') (A") (A') (A') (A") (A') (A')
                 (A') (A') (A') (A') (A') (A") (A") (A") (A") (A')
                 (A') (A') (A") (A") (A') (A") (A') (A') (A') (A')
                 (A') (A") (A') (A') (A')
 The electronic state of the initial guess is 2-A'.
 <S**2> of initial guess= 0.7500
 Requested convergence on RMS density matrix=1.00D-08 within 128 cycles.
 Requested convergence on MAX density matrix=1.00D-06.
 Requested convergence on             energy=1.00D-06.
 No special actions if energy rises.
 Keep R1 and R2 integrals in memory in canonical form, NReq=   177428849.
 Restarting incremental Fock formation.
 SCF Done:  E(UHF) =  -1733.20510801     A.U. after   25 cycles
             Convg  =    0.9872D-08             -V/T =  2.0000
             S**2   =   0.8290
 Annihilation of the first spin contaminant:
 S**2 before annihilation     0.8290,   after     0.7511
 QCSCF skips out because SCF is already converged.
 Range of M.O.s used for correlation:     1   156
 NBasis=   156 NAE=    42 NBE=    41 NFC=     0 NFV=     0
 NROrb=    156 NOA=    42 NOB=    41 NVA=   114 NVB=   115
          Differentiating once with respect to electric field.
                with respect to dipole field.
          Electric field/nuclear overlap derivatives assumed to be zero.
          Store integrals in memory, NReq=   175153649.
          There are   3 degrees of freedom in the 1st order CPHF.
     3 vectors were produced by pass  0.
 AX will form   3 AO Fock derivatives at one time.
     3 vectors were produced by pass  1.
     3 vectors were produced by pass  2.
     3 vectors were produced by pass  3.
     3 vectors were produced by pass  4.
     3 vectors were produced by pass  5.
     3 vectors were produced by pass  6.
     3 vectors were produced by pass  7.
     3 vectors were produced by pass  8.
     3 vectors were produced by pass  9.
     3 vectors were produced by pass 10.
     3 vectors were produced by pass 11.
     3 vectors were produced by pass 12.
     3 vectors were produced by pass 13.
     3 vectors were produced by pass 14.
     2 vectors were produced by pass 15.
     1 vectors were produced by pass 16.
 Inv2:  IOpt= 1 Iter= 1 AM= 5.36D-14 Conv= 1.00D-12.
 Inverted reduced A of dimension   48 with in-core refinement.
 End of Minotr Frequency-dependent properties file   721 does not exist.
 Symmetrizing basis deriv contribution to polar:
 IMax=3 JMax=2 DiffMx= 0.00D+00
 G2DrvN: will do    7 centers at a time, making    1 passes doing MaxLOS=2.
 FoFDir/FoFCou used for L=0 through L=2.
 DoAtom=TTTTTT
          Differentiating once with respect to electric field.
                with respect to dipole field.
          Differentiating once with respect to nuclear coordinates.
          Store integrals in memory, NReq=   175153775.
          There are  18 degrees of freedom in the 1st order CPHF.
    18 vectors were produced by pass  0.
 AX will form  18 AO Fock derivatives at one time.
    18 vectors were produced by pass  1.
    18 vectors were produced by pass  2.
    18 vectors were produced by pass  3.
    18 vectors were produced by pass  4.
    18 vectors were produced by pass  5.
    18 vectors were produced by pass  6.
    18 vectors were produced by pass  7.
    18 vectors were produced by pass  8.
    16 vectors were produced by pass  9.
     3 vectors were produced by pass 10.
     3 vectors were produced by pass 11.
     3 vectors were produced by pass 12.
 Inv2:  IOpt= 1 Iter= 1 AM= 8.78D-14 Conv= 1.00D-12.
 Inverted reduced A of dimension  187 with in-core refinement.
 Isotropic polarizability for W=    0.000000      171.37 Bohr**3.
 End of Minotr Frequency-dependent properties file   721 does not exist.

 **********************************************************************

            Population analysis using the SCF density.

 **********************************************************************

 Orbital symmetries:
 Alpha Orbitals:
       Occupied  (A') (A') (A') (A') (A') (A") (A') (A') (A') (A')
                 (A') (A") (A') (A') (A') (A') (A") (A") (A') (A')
                 (A") (A') (A") (A') (A') (A") (A') (A") (A') (A")
                 (A') (A') (A') (A") (A') (A') (A') (A") (A") (A')
                 (A') (A')
       Virtual   (A') (A") (A") (A') (A') (A") (A') (A') (A') (A")
                 (A') (A") (A') (A') (A') (A") (A') (A") (A') (A')
                 (A") (A') (A") (A') (A") (A') (A') (A") (A') (A")
                 (A') (A') (A') (A") (A') (A") (A') (A') (A") (A")
                 (A") (A') (A') (A') (A') (A") (A') (A") (A') (A')
                 (A") (A') (A") (A') (A') (A") (A') (A") (A') (A')
                 (A') (A') (A") (A") (A') (A") (A') (A') (A") (A")
                 (A") (A') (A') (A") (A') (A') (A') (A") (A") (A')
                 (A') (A') (A') (A") (A') (A') (A') (A") (A') (A')
                 (A') (A') (A") (A') (A") (A') (A") (A") (A') (A')
                 (A') (A") (A") (A') (A") (A') (A') (A') (A') (A')
                 (A') (A") (A') (A')
 Beta  Orbitals:
       Occupied  (A') (A') (A') (A') (A') (A") (A') (A') (A') (A')
                 (A') (A") (A') (A') (A") (A") (A') (A') (A') (A')
                 (A") (A') (A") (A') (A') (A") (A') (A") (A') (A")
                 (A') (A') (A') (A") (A') (A') (A") (A") (A') (A')
                 (A')
       Virtual   (A') (A') (A") (A") (A') (A") (A') (A') (A') (A')
                 (A") (A') (A") (A') (A') (A") (A') (A') (A") (A')
                 (A") (A') (A") (A') (A') (A") (A') (A') (A") (A')
                 (A") (A') (A') (A') (A') (A") (A") (A') (A') (A")
                 (A") (A") (A') (A') (A') (A') (A") (A') (A") (A')
                 (A') (A") (A') (A") (A') (A') (A") (A') (A") (A')
                 (A') (A') (A") (A') (A") (A') (A") (A') (A') (A")
                 (A") (A") (A') (A') (A") (A') (A') (A') (A") (A")
                 (A') (A') (A') (A') (A") (A') (A') (A') (A") (A')
                 (A') (A') (A') (A") (A") (A') (A') (A") (A") (A')
                 (A') (A') (A") (A") (A') (A") (A') (A') (A') (A')
                 (A') (A') (A") (A') (A')
 The electronic state is 2-A'.
 Alpha  occ. eigenvalues --  -69.02772 -69.02772 -68.99037 -68.98238 -68.96406
 Alpha  occ. eigenvalues --  -68.96406  -6.36891  -6.36889  -6.33304  -6.32615
 Alpha  occ. eigenvalues --   -6.31199  -6.31194  -4.47584  -4.47583  -4.46896
 Alpha  occ. eigenvalues --   -4.46896  -4.46886  -4.46885  -4.43378  -4.43355
 Alpha  occ. eigenvalues --   -4.43332  -4.42824  -4.42745  -4.42736  -4.41583
 Alpha  occ. eigenvalues --   -4.41582  -4.41565  -4.41549  -4.41443  -4.41442
 Alpha  occ. eigenvalues --   -1.07005  -0.86170  -0.84688  -0.78286  -0.68175
 Alpha  occ. eigenvalues --   -0.62228  -0.53338  -0.51905  -0.51792  -0.50651
 Alpha  occ. eigenvalues --   -0.48986  -0.45896
 Alpha virt. eigenvalues --   -0.17356  -0.16685  -0.15236  -0.14225  -0.08666
 Alpha virt. eigenvalues --   -0.08188  -0.05714  -0.05434  -0.02903  -0.02466
 Alpha virt. eigenvalues --   -0.01773   0.01614   0.05316   0.05724   0.06861
 Alpha virt. eigenvalues --    0.07174   0.07958   0.08950   0.10956   0.13404
 Alpha virt. eigenvalues --    0.14366   0.15469   0.15484   0.17950   0.20327
 Alpha virt. eigenvalues --    0.21286   0.21647   0.22889   0.23638   0.26533
 Alpha virt. eigenvalues --    0.34063   0.39803   0.41252   0.42492   0.42563
 Alpha virt. eigenvalues --    0.45974   0.46339   0.47517   0.50573   0.54686
 Alpha virt. eigenvalues --    0.54940   0.55326   0.56783   0.59235   0.59634
 Alpha virt. eigenvalues --    0.61478   0.65055   0.66321   0.68043   0.71802
 Alpha virt. eigenvalues --    0.72286   0.72908   0.79025   0.79339   0.81548
 Alpha virt. eigenvalues --    0.83585   0.85504   0.88582   0.88876   0.92345
 Alpha virt. eigenvalues --    0.94356   0.96284   0.96587   0.97051   1.00721
 Alpha virt. eigenvalues --    1.03773   1.18615   1.22870   1.24470   1.25140
 Alpha virt. eigenvalues --    1.28743   1.29259   1.30781   1.34543   1.34573
 Alpha virt. eigenvalues --    1.40967   1.43186   1.44826   1.45766   1.51406
 Alpha virt. eigenvalues --    1.53226   1.55585   1.59450   1.61721   5.59386
 Alpha virt. eigenvalues --    5.64753   5.68739   5.70065   5.72328   5.87692
 Alpha virt. eigenvalues --   11.88338  11.91003  11.91545  11.91913  11.92308
 Alpha virt. eigenvalues --   11.93062  11.95485  11.96726  11.97669  11.98101
 Alpha virt. eigenvalues --   12.01844  12.04237  12.04549  12.04889  12.12307
 Alpha virt. eigenvalues --   12.14961  12.15470  12.30087 143.35276 143.40405
 Alpha virt. eigenvalues --  143.45222 143.47628 143.49327 143.68877
  Beta  occ. eigenvalues --  -69.02421 -69.02421 -68.99032 -68.98221 -68.96369
  Beta  occ. eigenvalues --  -68.96369  -6.36447  -6.36445  -6.33299  -6.32599
  Beta  occ. eigenvalues --   -6.31166  -6.31161  -4.46714  -4.46714  -4.46709
  Beta  occ. eigenvalues --   -4.46709  -4.46115  -4.46115  -4.43366  -4.43360
  Beta  occ. eigenvalues --   -4.43307  -4.42876  -4.42770  -4.42541  -4.41591
  Beta  occ. eigenvalues --   -4.41576  -4.41440  -4.41437  -4.41288  -4.41287
  Beta  occ. eigenvalues --   -1.06082  -0.84440  -0.82966  -0.77819  -0.63131
  Beta  occ. eigenvalues --   -0.57159  -0.51871  -0.50877  -0.49835  -0.48809
  Beta  occ. eigenvalues --   -0.46091
  Beta virt. eigenvalues --   -0.23506  -0.16547  -0.16309  -0.15063  -0.14001
  Beta virt. eigenvalues --   -0.07702  -0.05735  -0.05388  -0.04822  -0.02229
  Beta virt. eigenvalues --   -0.00260   0.00029   0.01578   0.05740   0.06941
  Beta virt. eigenvalues --    0.07317   0.07605   0.08007   0.08911   0.13066
  Beta virt. eigenvalues --    0.14401   0.15165   0.15400   0.15913   0.18305
  Beta virt. eigenvalues --    0.20687   0.21946   0.22569   0.23970   0.24788
  Beta virt. eigenvalues --    0.26555   0.34242   0.40086   0.42892   0.42957
  Beta virt. eigenvalues --    0.43734   0.46892   0.47119   0.49545   0.50720
  Beta virt. eigenvalues --    0.55161   0.55922   0.57405   0.57645   0.59840
  Beta virt. eigenvalues --    0.60125   0.61831   0.65573   0.66867   0.69289
  Beta virt. eigenvalues --    0.72378   0.72825   0.73521   0.79407   0.79704
  Beta virt. eigenvalues --    0.82021   0.83595   0.86423   0.89018   0.89349
  Beta virt. eigenvalues --    0.93618   0.94582   0.96482   0.97675   0.98031
  Beta virt. eigenvalues --    1.00745   1.03897   1.18850   1.23487   1.25151
  Beta virt. eigenvalues --    1.25508   1.29109   1.29599   1.31748   1.34726
  Beta virt. eigenvalues --    1.35121   1.41926   1.43730   1.45349   1.45822
  Beta virt. eigenvalues --    1.51940   1.54936   1.55796   1.59514   1.61784
  Beta virt. eigenvalues --    5.59955   5.64845   5.69414   5.70129   5.72367
  Beta virt. eigenvalues --    5.87744  11.88512  11.91117  11.91689  11.92433
  Beta virt. eigenvalues --   11.92557  11.93464  11.95493  11.96730  11.98182
  Beta virt. eigenvalues --   11.98251  12.02096  12.04489  12.04562  12.04908
  Beta virt. eigenvalues --   12.12283  12.14999  12.16185  12.30195 143.35496
  Beta virt. eigenvalues --  143.40434 143.45469 143.47643 143.49335 143.68891
          Condensed to atoms (all electrons):
              1          2          3          4          5          6
     1  Si  13.936351   0.117489   0.042388   0.053076   0.053089  -0.041845
     2  Si   0.117489  13.316970  -0.037747   0.048561   0.048548   0.117489
     3  Si   0.042388  -0.037747  13.496805   0.122976   0.122963   0.042388
     4  Si   0.053076   0.048561   0.122976  13.379745  -0.018506   0.053076
     5  Si   0.053089   0.048548   0.122963  -0.018506  13.379711   0.053089
     6  Si  -0.041845   0.117489   0.042388   0.053076   0.053089  13.936351
 Mulliken atomic charges:
              1
     1  Si  -0.160548
     2  Si   0.388690
     3  Si   0.210228
     4  Si   0.361071
     5  Si   0.361106
     6  Si  -0.160548
 Sum of Mulliken charges=   1.00000
 Atomic charges with hydrogens summed into heavy atoms:
              1
     1  Si  -0.160548
     2  Si   0.388690
     3  Si   0.210228
     4  Si   0.361071
     5  Si   0.361106
     6  Si  -0.160548
 Sum of Mulliken charges=   1.00000
          Atomic-Atomic Spin Densities.
              1          2          3          4          5          6
     1  Si  -0.103286   0.019648  -0.069994   0.137730   0.137729  -0.087514
     2  Si   0.019648   0.003735   0.008085  -0.024836  -0.024827   0.019648
     3  Si  -0.069994   0.008085  -0.030909   0.082989   0.082982  -0.069994
     4  Si   0.137730  -0.024836   0.082989   0.200820  -0.071033   0.137730
     5  Si   0.137729  -0.024827   0.082982  -0.071033   0.200783   0.137729
     6  Si  -0.087514   0.019648  -0.069994   0.137730   0.137729  -0.103286
 Mulliken atomic spin densities:
              1
     1  Si   0.034313
     2  Si   0.001453
     3  Si   0.003159
     4  Si   0.463400
     5  Si   0.463363
     6  Si   0.034313
 Sum of Mulliken spin densities=   1.00000
 APT atomic charges:
              1
     1  Si  -0.219287
     2  Si   0.416720
     3  Si   0.229204
     4  Si   0.396289
     5  Si   0.396358
     6  Si  -0.219285
 Sum of APT charges=   1.00000
 APT Atomic charges with hydrogens summed into heavy atoms:
              1
     1  Si  -0.219287
     2  Si   0.416720
     3  Si   0.229204
     4  Si   0.396289
     5  Si   0.396358
     6  Si  -0.219285
 Sum of APT charges=   1.00000
 Electronic spatial extent (au):  <R**2>=  1111.0188
 Charge=     1.0000 electrons
 Dipole moment (field-independent basis, Debye):
    X=     0.0001    Y=     0.0145    Z=     0.0000  Tot=     0.0145
 Quadrupole moment (field-independent basis, Debye-Ang):
   XX=   -54.8647   YY=   -70.6236   ZZ=   -71.7925
   XY=    -0.0003   XZ=     0.0000   YZ=     0.0000
 Traceless Quadrupole moment (field-independent basis, Debye-Ang):
   XX=    10.8956   YY=    -4.8634   ZZ=    -6.0322
   XY=    -0.0003   XZ=     0.0000   YZ=     0.0000
 Octapole moment (field-independent basis, Debye-Ang**2):
  XXX=     0.0010  YYY=    -1.0261  ZZZ=     0.0000  XYY=     0.0001
  XXY=     3.3653  XXZ=     0.0000  XZZ=    -0.0002  YZZ=     1.5188
  YYZ=     0.0000  XYZ=     0.0000
 Hexadecapole moment (field-independent basis, Debye-Ang**3):
 XXXX=  -547.0652 YYYY=  -768.7464 ZZZZ=  -398.0027 XXXY=    -0.0070
 XXXZ=     0.0000 YYYX=    -0.0091 YYYZ=     0.0000 ZZZX=     0.0000
 ZZZY=     0.0000 XXYY=  -221.9101 XXZZ=  -174.0662 YYZZ=  -185.1759
 XXYZ=     0.0000 YYXZ=     0.0000 ZZXY=    -0.0019
 N-N= 5.869600993334D+02 E-N=-5.294750319032D+03  KE= 1.733200429441D+03
 Symmetry A'   KE= 1.344618926797D+03
 Symmetry A"   KE= 3.885815026443D+02
  Exact polarizability: 181.012   0.002 181.528   0.000   0.000 151.566
 Approx polarizability: 267.957   0.003 243.104   0.000   0.000 227.049
                          Isotropic Fermi Contact Couplings
        Atom                 a.u.       MegaHertz       Gauss      10(-4) cm-1
     1  Si(29)            -0.03868      34.37548      12.26602      11.46643
     2  Si(29)            -0.00256       2.27179       0.81063       0.75779
     3  Si(29)            -0.01089       9.67406       3.45194       3.22692
     4  Si(29)             0.24030    -213.56015     -76.20357     -71.23600
     5  Si(29)             0.24024    -213.51102     -76.18604     -71.21961
     6  Si(29)            -0.03868      34.37548      12.26602      11.46643
 --------------------------------------------------------
       Center         ----  Spin Dipole Couplings  ----
                      3XX-RR        3YY-RR        3ZZ-RR
 --------------------------------------------------------
     1   Atom        0.243739     -0.114894     -0.128845
     2   Atom        0.001562     -0.015141      0.013579
     3   Atom        0.289615     -0.210991     -0.078624
     4   Atom        1.016702     -0.502358     -0.514345
     5   Atom        1.016722     -0.502375     -0.514348
     6   Atom        0.243739     -0.114894     -0.128845
 --------------------------------------------------------
                        XY            XZ            YZ
 --------------------------------------------------------
     1   Atom       -0.000005     -0.000009      0.034968
     2   Atom        0.000041      0.000000      0.000000
     3   Atom        0.000047      0.000000      0.000000
     4   Atom        0.089593      0.000000      0.000000
     5   Atom       -0.089619      0.000000      0.000000
     6   Atom       -0.000005      0.000009     -0.034968
 --------------------------------------------------------


 ---------------------------------------------------------------------------------
              Anisotropic Spin Dipole Couplings in Principal Axis System
 ---------------------------------------------------------------------------------

       Atom             a.u.   MegaHertz   Gauss  10(-4) cm-1        Axes

              Baa    -0.1575    16.711     5.963     5.574  0.0000 -0.6342  0.7732
     1 Si(29) Bbb    -0.0862     9.146     3.263     3.051  0.0000  0.7732  0.6342
              Bcc     0.2437   -25.857    -9.226    -8.625  1.0000  0.0000  0.0000
 
              Baa    -0.0151     1.606     0.573     0.536 -0.0025  1.0000  0.0000
     2 Si(29) Bbb     0.0016    -0.166    -0.059    -0.055  1.0000  0.0025  0.0000
              Bcc     0.0136    -1.441    -0.514    -0.481  0.0000  0.0000  1.0000
 
              Baa    -0.2110    22.383     7.987     7.466 -0.0001  1.0000  0.0000
     3 Si(29) Bbb    -0.0786     8.341     2.976     2.782  0.0000  0.0000  1.0000
              Bcc     0.2896   -30.723   -10.963   -10.248  1.0000  0.0001  0.0000
 
              Baa    -0.5143    54.564    19.470    18.201  0.0000  0.0000  1.0000
     4 Si(29) Bbb    -0.5076    53.851    19.215    17.963 -0.0587  0.9983  0.0000
              Bcc     1.0220  -108.415   -38.685   -36.163  0.9983  0.0587  0.0000
 
              Baa    -0.5143    54.564    19.470    18.201  0.0000  0.0000  1.0000
     5 Si(29) Bbb    -0.5076    53.853    19.216    17.963  0.0587  0.9983  0.0000
              Bcc     1.0220  -108.417   -38.686   -36.164  0.9983 -0.0587  0.0000
 
              Baa    -0.1575    16.711     5.963     5.574  0.0000  0.6342  0.7732
     6 Si(29) Bbb    -0.0862     9.146     3.263     3.051  0.0000  0.7732 -0.6342
              Bcc     0.2437   -25.857    -9.226    -8.625  1.0000  0.0000  0.0000
 

 ---------------------------------------------------------------------------------

 Full mass-weighted force constant matrix:
 Low frequencies ---  -91.9056  -72.9207  -63.3383    0.0015    0.0036    0.0068
 Low frequencies ---   42.6009   56.1159   63.7145
 ******    2 imaginary frequencies (negative Signs) ****** 
 Diagonal vibrational polarizability:
        3.6517875      28.6687324       9.5979153
 Diagonal vibrational hyperpolarizability:
        0.1860975     247.0093327      -0.0025171
 Harmonic frequencies (cm**-1), IR intensities (KM/Mole), Raman scattering
 activities (A**4/AMU), depolarization ratios for plane and unpolarized
 incident light, reduced masses (AMU), force constants (mDyne/A),
 and normal coordinates:
                     1                      2                      3
                    A'                     A"                     A'
 Frequencies --   -91.9053               -69.2515                56.1159
 Red. masses --    27.9769                27.9769                27.9769
 Frc consts  --     0.1392                 0.0791                 0.0519
 IR Inten    --     0.3482                 0.1167                 2.7661
 Raman Activ --     7.7933                 0.0033                20.9886
 Depolar (P) --     0.7500                 0.7499                 0.2140
 Depolar (U) --     0.8571                 0.8571                 0.3526
 Atom AN      X      Y      Z        X      Y      Z        X      Y      Z
   1  14    -0.36   0.00   0.00     0.00  -0.02  -0.04     0.00  -0.30  -0.10
   2  14     0.64   0.00   0.00     0.00   0.00   0.43     0.00  -0.35   0.00
   3  14     0.48   0.00   0.00     0.00   0.00   0.60     0.00  -0.18   0.00
   4  14    -0.20   0.11   0.00     0.00   0.00  -0.48    -0.02   0.57   0.00
   5  14    -0.20  -0.11   0.00     0.00   0.00  -0.48     0.02   0.57   0.00
   6  14    -0.36   0.00   0.00     0.00   0.02  -0.04     0.00  -0.30   0.10
                     4                      5                      6
                    A"                     A'                     A'
 Frequencies --   257.2927               267.0631               324.0560
 Red. masses --    27.9769                27.9769                27.9769
 Frc consts  --     1.0912                 1.1756                 1.7310
 IR Inten    --    21.8102                 4.2455                 0.0025
 Raman Activ --     1.4147                10.8232                33.1043
 Depolar (P) --     0.7500                 0.7500                 0.1267
 Depolar (U) --     0.8571                 0.8571                 0.2249
 Atom AN      X      Y      Z        X      Y      Z        X      Y      Z
   1  14     0.00  -0.13   0.57    -0.20   0.00   0.00     0.00  -0.03   0.38
   2  14     0.00   0.00  -0.24    -0.37   0.00   0.00     0.00   0.18   0.00
   3  14     0.00   0.00  -0.26     0.53   0.00   0.00     0.00  -0.27   0.00
   4  14     0.00   0.00  -0.31     0.12  -0.49   0.00     0.54   0.08   0.00
   5  14     0.00   0.00  -0.31     0.12   0.49   0.00    -0.54   0.08   0.00
   6  14     0.00   0.13   0.57    -0.20   0.00   0.00     0.00  -0.03  -0.38
                     7                      8                      9
                    A"                     A'                     A'
 Frequencies --   330.6688               342.6214               364.4400
 Red. masses --    27.9769                27.9769                27.9769
 Frc consts  --     1.8023                 1.9350                 2.1893
 IR Inten    --     0.0000                 4.1032                 1.3424
 Raman Activ --     4.7057                 0.4191                43.7990
 Depolar (P) --     0.7500                 0.7500                 0.6273
 Depolar (U) --     0.8571                 0.8571                 0.7709
 Atom AN      X      Y      Z        X      Y      Z        X      Y      Z
   1  14     0.58   0.00   0.00     0.41   0.00   0.00     0.00  -0.10  -0.18
   2  14     0.00   0.00   0.00    -0.09   0.00   0.00     0.00  -0.36   0.00
   3  14     0.00   0.00   0.00     0.32   0.00   0.00     0.00   0.71   0.00
   4  14     0.00   0.00  -0.40    -0.52  -0.08   0.00     0.36  -0.07   0.00
   5  14     0.00   0.00   0.40    -0.52   0.08   0.00    -0.36  -0.07   0.00
   6  14    -0.58   0.00   0.00     0.41   0.00   0.00     0.00  -0.10   0.18
                    10                     11                     12
                    A"                     A'                     A'
 Frequencies --   395.7292               439.5017               464.7150
 Red. masses --    27.9769                27.9769                27.9769
 Frc consts  --     2.5813                 3.1840                 3.5598
 IR Inten    --     0.4487                22.4669                13.0539
 Raman Activ --     1.5008                11.1421               165.0440
 Depolar (P) --     0.7500                 0.0571                 0.0026
 Depolar (U) --     0.8571                 0.1079                 0.0052
 Atom AN      X      Y      Z        X      Y      Z        X      Y      Z
   1  14     0.00   0.57   0.09     0.00   0.45  -0.26     0.00  -0.17  -0.50
   2  14     0.00   0.00  -0.46     0.00  -0.46   0.00     0.00   0.58   0.00
   3  14     0.00   0.00   0.34     0.00  -0.42   0.00     0.00  -0.20   0.00
   4  14     0.00   0.00  -0.03     0.18  -0.01   0.00     0.20  -0.02   0.00
   5  14     0.00   0.00  -0.03    -0.18  -0.01   0.00    -0.20  -0.02   0.00
   6  14     0.00  -0.57   0.09     0.00   0.45   0.26     0.00  -0.17   0.50

 -------------------
 - Thermochemistry -
 -------------------
 Temperature   298.150 Kelvin.  Pressure   1.00000 Atm.
 Atom  1 has atomic number 14 and mass  27.97693
 Atom  2 has atomic number 14 and mass  27.97693
 Atom  3 has atomic number 14 and mass  27.97693
 Atom  4 has atomic number 14 and mass  27.97693
 Atom  5 has atomic number 14 and mass  27.97693
 Atom  6 has atomic number 14 and mass  27.97693
 Molecular mass:   167.86157 amu.
 Principal axes and moments of inertia in atomic units:
                           1         2         3
     EIGENVALUES --  1124.468271167.446091562.28845
           X            0.00032   1.00000   0.00000
           Y            1.00000  -0.00032   0.00000
           Z            0.00000   0.00000   1.00000
 This molecule is an asymmetric top.
 Rotational symmetry number  1.
 Warning -- assumption of classical behavior for rotation
           may cause significant error
 Rotational temperatures (Kelvin)      0.07703     0.07419     0.05544
 Rotational constants (GHZ):           1.60497     1.54589     1.15519
    2 imaginary frequencies ignored.
 Zero-point vibrational energy      19392.7 (Joules/Mol)
                                    4.63496 (Kcal/Mol)
 Warning -- explicit consideration of  10 degrees of freedom as
           vibrations may cause significant error
 Vibrational temperatures:     80.74   370.19   384.24   466.24   475.76
          (Kelvin)            492.96   524.35   569.37   632.34   668.62
 
 Zero-point correction=                           0.007386 (Hartree/Particle)
 Thermal correction to Energy=                    0.014307
 Thermal correction to Enthalpy=                  0.015252
 Thermal correction to Gibbs Free Energy=        -0.026104
 Sum of electronic and zero-point Energies=          -1733.197722
 Sum of electronic and thermal Energies=             -1733.190801
 Sum of electronic and thermal Enthalpies=           -1733.189856
 Sum of electronic and thermal Free Energies=        -1733.231212
 
                     E (Thermal)             CV                S
                      KCal/Mol        Cal/Mol-Kelvin    Cal/Mol-Kelvin
 Total                    8.978             21.990             87.040
 Electronic               0.000              0.000              1.377
 Translational            0.889              2.981             41.262
 Rotational               0.889              2.981             29.107
 Vibrational              7.201             16.028             15.293
 Vibration  1             0.596              1.975              4.589
 Vibration  2             0.667              1.750              1.680
 Vibration  3             0.672              1.734              1.615
 Vibration  4             0.709              1.627              1.290
 Vibration  5             0.713              1.614              1.257
 Vibration  6             0.722              1.590              1.200
 Vibration  7             0.738              1.545              1.103
 Vibration  8             0.762              1.479              0.978
 Vibration  9             0.800              1.384              0.828
 Vibration 10             0.822              1.328              0.753
                       Q            Log10(Q)             Ln(Q)
 Total Bot       0.101599D+13         12.006891         27.646889
 Total V=0       0.253711D+16         15.404339         35.469801
 Vib (Bot)       0.115920D-01         -1.935840         -4.457436
 Vib (Bot)  1    0.368154D+01          0.566029          1.303331
 Vib (Bot)  2    0.755907D+00         -0.121532         -0.279838
 Vib (Bot)  3    0.724733D+00         -0.139822         -0.321951
 Vib (Bot)  4    0.578680D+00         -0.237562         -0.547006
 Vib (Bot)  5    0.564823D+00         -0.248088         -0.571243
 Vib (Bot)  6    0.541054D+00         -0.266760         -0.614237
 Vib (Bot)  7    0.501445D+00         -0.299777         -0.690262
 Vib (Bot)  8    0.451803D+00         -0.345051         -0.794508
 Vib (Bot)  9    0.393490D+00         -0.405066         -0.932699
 Vib (Bot) 10    0.364574D+00         -0.438214         -1.009024
 Vib (V=0)       0.289473D+02          1.461608          3.365476
 Vib (V=0)  1    0.421534D+01          0.624832          1.438730
 Vib (V=0)  2    0.140631D+01          0.148081          0.340968
 Vib (V=0)  3    0.138048D+01          0.140029          0.322429
 Vib (V=0)  4    0.126477D+01          0.102011          0.234889
 Vib (V=0)  5    0.125434D+01          0.098414          0.226608
 Vib (V=0)  6    0.123671D+01          0.092267          0.212453
 Vib (V=0)  7    0.120813D+01          0.082113          0.189073
 Vib (V=0)  8    0.117389D+01          0.069627          0.160322
 Vib (V=0)  9    0.113627D+01          0.055480          0.127748
 Vib (V=0) 10    0.111880D+01          0.048753          0.112257
 Electronic      0.200000D+01          0.301030          0.693147
 Translational   0.854835D+08          7.931882         18.263833
 Rotational      0.512648D+06          5.709819         13.147344
 ***** Axes restored to original set *****
 -------------------------------------------------------------------
 Center     Atomic                   Forces (Hartrees/Bohr)
 Number     Number              X              Y              Z
 -------------------------------------------------------------------
    1         14          -0.000000013   -0.009673341    0.015020712
    2         14          -0.000000348   -0.010081176    0.000000000
    3         14          -0.000001554    0.019842570    0.000000000
    4         14           0.036527806    0.004792697    0.000000000
    5         14          -0.036525877    0.004792591    0.000000000
    6         14          -0.000000013   -0.009673341   -0.015020712
 -------------------------------------------------------------------
 Cartesian Forces:  Max     0.036527806 RMS     0.014621346
 ------------------------------------------------------------------------
           Internal Coordinate Forces (Hartree/Bohr or radian)
 Cent Atom N1     Length/X     N2     Alpha/Y      N3      Beta/Z       J
 ------------------------------------------------------------------------
   1  Si        0.000000(   1)     -0.009673(   7)      0.015021(  13)
   2  Si        0.000000(   2)     -0.010081(   8)      0.000000(  14)
   3  Si       -0.000002(   3)      0.019843(   9)      0.000000(  15)
   4  Si        0.036528(   4)      0.004793(  10)      0.000000(  16)
   5  Si       -0.036526(   5)      0.004793(  11)      0.000000(  17)
   6  Si        0.000000(   6)     -0.009673(  12)     -0.015021(  18)
 ------------------------------------------------------------------------
 Internal  Forces:  Max     0.036527806 RMS     0.014621346

 GradGradGradGradGradGradGradGradGradGradGradGradGradGradGradGradGradGrad
 Berny optimization.
 Search for a local minimum.
 Step number   1 out of a maximum of   2
 All quantities printed in internal units (Hartrees-Bohrs-Radians)
 Second derivative matrix not updated -- analytic derivatives used.
 The second derivative matrix:
                          X1        Y1        Z1        X2        Y2
           X1           0.05872
           Y1           0.00000   0.10424
           Z1           0.00000  -0.00125   0.11434
           X2           0.00227   0.00000   0.00000   0.00562
           Y2           0.00000  -0.05937  -0.02458   0.00001   0.14227
           Z2           0.00000  -0.04243  -0.01761   0.00000   0.00000
           X3           0.01052   0.00000   0.00000  -0.01847   0.00000
           Y3           0.00000  -0.04052   0.01616   0.00000  -0.02877
           Z3           0.00000   0.03593  -0.00413   0.00000   0.00000
           X4          -0.02870   0.00227  -0.01791   0.00415   0.00114
           Y4           0.00390  -0.00013   0.00843   0.01273   0.00262
           Z4          -0.02728   0.00027  -0.01288   0.00000   0.00000
           X5          -0.02870  -0.00227   0.01792   0.00415  -0.00114
           Y5          -0.00389  -0.00013   0.00843  -0.01273   0.00262
           Z5           0.02728   0.00027  -0.01288   0.00000   0.00000
           X6          -0.01411   0.00000   0.00000   0.00227   0.00000
           Y6           0.00000  -0.00409  -0.00720   0.00000  -0.05937
           Z6           0.00000   0.00720  -0.06684   0.00000   0.02458
                          Z2        X3        Y3        Z3        X4
           Z2           0.03865
           X3           0.00000   0.02872
           Y3           0.00000   0.00001   0.12519
           Z3          -0.02167   0.00000   0.00000   0.01993
           X4           0.00000  -0.01565  -0.00439   0.00000   0.10152
           Y4           0.00000  -0.02291  -0.00770   0.00000   0.00055
           Z4           0.00911   0.00000   0.00000   0.00500   0.00000
           X5           0.00000  -0.01565   0.00438   0.00000  -0.03262
           Y5           0.00000   0.02291  -0.00769   0.00000  -0.00185
           Z5           0.00911   0.00000   0.00000   0.00499   0.00000
           X6           0.00000   0.01052   0.00000   0.00000  -0.02870
           Y6           0.04243   0.00000  -0.04052  -0.03593   0.00227
           Z6          -0.01761   0.00000  -0.01616  -0.00413   0.01791
                          Y4        Z4        X5        Y5        Z5
           Y4           0.02550
           Z4           0.00000   0.02969
           X5           0.00184   0.00000   0.10152
           Y5          -0.02016   0.00000  -0.00055   0.02550
           Z5           0.00000  -0.01803   0.00000   0.00000   0.02969
           X6           0.00390   0.02728  -0.02870  -0.00389  -0.02728
           Y6          -0.00013  -0.00027  -0.00227  -0.00013  -0.00027
           Z6          -0.00843  -0.01288  -0.01792  -0.00843  -0.01288
                          X6        Y6        Z6
           X6           0.05872
           Y6           0.00000   0.10424
           Z6           0.00000   0.00125   0.11434
     Eigenvalues ---   -0.00894  -0.00508   0.00333   0.07009   0.07551
     Eigenvalues ---    0.11118   0.11577   0.12429   0.14062   0.16580
     Eigenvalues ---    0.20451   0.22865
 Eigenvalue   1 out of range, new value =    0.008943 Eigenvector:
                           1
           X1          -0.35598
           Y1          -0.00003
           Z1          -0.00001
           X2           0.63856
           Y2          -0.00008
           Z2          -0.00002
           X3           0.48027
           Y3          -0.00003
           Z3          -0.00003
           X4          -0.20342
           Y4           0.11269
           Z4           0.00003
           X5          -0.20346
           Y5          -0.11251
           Z5           0.00003
           X6          -0.35598
           Y6          -0.00003
           Z6           0.00001
 Eigenvalue   2 out of range, new value =    0.005077 Eigenvector:
                           1
           X1          -0.00002
           Y1          -0.02177
           Z1          -0.03882
           X2           0.00004
           Y2           0.00000
           Z2           0.43072
           X3           0.00002
           Y3           0.00000
           Z3           0.59830
           X4          -0.00001
           Y4           0.00001
           Z4          -0.47571
           X5          -0.00001
           Y5          -0.00002
           Z5          -0.47567
           X6          -0.00002
           Y6           0.02177
           Z6          -0.03882
 Quadratic step=2.130D+00 exceeds max=3.000D-01 adjusted using Lamda=-8.753D-02.
 Angle between NR and scaled steps=  61.77 degrees.
 Angle between quadratic step and forces=   9.52 degrees.
 Linear search not attempted -- first point.
 TrRot=  0.000000  0.000000  0.000000  0.000000  0.000000  0.000000
 Variable       Old X    -DE/DX   Delta X   Delta X   Delta X     New X
                                 (Linear)    (Quad)   (Total)
    X1        0.00004   0.00000   0.00000   0.00000   0.00000   0.00004
    Y1       -0.33353  -0.00967   0.00000  -0.05535  -0.05535  -0.38888
    Z1        2.55341   0.01502   0.00000   0.06608   0.06608   2.61948
    X2       -0.00021   0.00000   0.00000   0.00000   0.00000  -0.00022
    Y2       -3.94867  -0.01008   0.00000  -0.05297  -0.05297  -4.00164
    Z2        0.00000   0.00000   0.00000   0.00000   0.00000   0.00000
    X3        0.00004   0.00000   0.00000   0.00000   0.00000   0.00004
    Y3        3.50037   0.01984   0.00000   0.06588   0.06588   3.56626
    Z3        0.00000   0.00000   0.00000   0.00000   0.00000   0.00000
    X4       -3.68458   0.03653   0.00000   0.17846   0.17846  -3.50612
    Y4        0.55775   0.00479   0.00000   0.04889   0.04889   0.60664
    Z4        0.00000   0.00000   0.00000   0.00000   0.00000   0.00000
    X5        3.68467  -0.03653   0.00000  -0.17845  -0.17845   3.50622
    Y5        0.55761   0.00479   0.00000   0.04889   0.04889   0.60651
    Z5        0.00000   0.00000   0.00000   0.00000   0.00000   0.00000
    X6        0.00004   0.00000   0.00000   0.00000   0.00000   0.00004
    Y6       -0.33353  -0.00967   0.00000  -0.05535  -0.05535  -0.38888
    Z6       -2.55341  -0.01502   0.00000  -0.06608  -0.06608  -2.61948
         Item               Value     Threshold  Converged?
 Maximum Force            0.036528     0.000450     NO 
 RMS     Force            0.014621     0.000300     NO 
 Maximum Displacement     0.178460     0.001800     NO 
 RMS     Displacement     0.070898     0.001200     NO 
 Predicted change in Energy=-1.316095D-02
 GradGradGradGradGradGradGradGradGradGradGradGradGradGradGradGradGradGrad

 1\1\GINC-NODE24\Freq\UHF\6-311G(d)\Si6(1+,2)\TAM\17-Jun-2011\0\\# hf/6
 -311G(d) freq scfcyc=500 scf=xqc\\si5-c\\1,2\Si,0.000023,-0.176499,1.3
 51205\Si,-0.000113,-2.089546,0.\Si,0.000023,1.852317,0.\Si,-1.949797,0
 .295151,0.\Si,1.949842,0.295076,0.\Si,0.000023,-0.176499,-1.351205\\Ve
 rsion=AM64L-G03RevE.01\State=2-A'\HF=-1733.205108\S2=0.829005\S2-1=0.\
 S2A=0.751063\RMSD=9.872e-09\RMSF=1.462e-02\ZeroPoint=0.0073863\Thermal
 =0.0143075\Dipole=0.0000209,0.0056867,0.\DipoleDeriv=-0.0060993,-0.000
 0179,0.0000047,0.0000078,-0.3621782,0.0400484,0.0000395,-0.0915837,-0.
 289583,0.0027159,0.0000003,-0.0000007,0.0000559,0.8602424,0.0000006,0.
 000004,-0.0000002,0.3872016,0.1956308,0.000013,0.0000079,-0.0000474,0.
 1925101,0.0000028,0.0000298,-0.0000003,0.2994715,0.4068752,-0.1055605,
 0.0000016,-0.1528313,0.3357676,-0.0000069,-0.0000286,0.0000013,0.44622
 43,0.4069745,0.1055819,0.0000058,0.1528453,0.3358363,0.0000054,-0.0000
 276,0.0000007,0.446263,-0.0060993,-0.0000168,-0.0000151,-0.0000381,-0.
 3621773,-0.0400511,-0.0000254,0.0915831,-0.2895772\Polar=181.0121202,0
 .0019423,181.5284287,-0.0002898,0.0000208,151.5658461\PolarDeriv=-0.00
 49064,2.525248,0.0002727,-7.0615901,-0.0003245,0.0007469,-0.260625,0.0
 005004,0.5350376,0.0012338,1.6978187,-0.1190363,17.5996919,0.0015991,4
 .9840575,0.0010442,-2.5361666,22.1054064,-0.0004996,-12.6437618,0.0004
 204,-0.0013084,0.0001019,0.0002333,-22.2782455,0.0016174,-32.1018719,-
 0.0000236,-0.000093,-7.5784999,0.0043996,-0.0017531,0.0000722,-0.00010
 29,-4.0779796,-0.0000311,0.0173183,2.5395595,-0.0000667,-0.0012204,-0.
 0000031,-0.0006427,-7.553346,0.0025995,31.6132741,0.0002388,-0.0000381
 ,1.7997105,0.001893,0.0005304,-0.0001062,-0.000113,5.3531377,-0.000299
 1,-28.2510245,2.5264633,-12.6747701,0.0003012,0.0002705,-14.738896,15.
 1686429,-8.1120118,-0.2897942,-0.001169,-0.0000386,3.0090601,0.0028489
 ,-0.001999,0.0000834,0.9102452,1.8984302,-0.000558,28.2451969,2.528309
 3,12.6737712,0.0013092,0.0000893,14.7384432,15.179365,8.1092006,-0.291
 9158,-0.000331,0.0003242,3.0070871,-0.0056243,-0.0015011,0.0000882,-0.
 9097111,1.8987196,0.0002113,-0.0061919,2.5245398,0.0003326,7.0615368,-
 0.0003795,-0.0000209,-0.2585615,-0.0012786,0.5351268,0.0003968,-1.6981
 179,-0.1189684,-17.5997927,0.0017921,-4.9842168,-0.0020425,-2.5360375,
 -22.1053942\HyperPolar=0.2605678,177.790001,-0.0284853,182.5334526,-0.
 0341503,-0.0070336,0.0018398,-0.0580364,-26.9181246,0.0234214\PG=CS [S
 G(Si4),X(Si2)]\NImag=2\\0.05872167,0.00000147,0.10424209,0.00000001,-0
 .00125186,0.11433948,0.00227338,-0.00000254,-0.00000157,0.00561715,-0.
 00000367,-0.05936986,-0.02457897,0.00000682,0.14227005,-0.00000176,-0.
 04242624,-0.01760568,-0.00000002,-0.00000001,0.03865466,0.01052370,-0.
 00000079,0.00000016,-0.01846806,0.00000158,0.00000012,0.02872176,0.000
 00001,-0.04051911,0.01616462,-0.00000297,-0.02876614,-0.00000001,0.000
 00570,0.12519498,-0.00000010,0.03593455,-0.00412555,-0.00000018,-0.000
 00011,-0.02167110,0.00000080,-0.00000022,0.01993277,-0.02870008,0.0022
 7220,-0.01791346,0.00415249,0.00114025,0.,-0.01565472,-0.00438713,0.00
 000002,0.10152429,0.00389597,-0.00013186,0.00843395,0.01272798,0.00261
 547,-0.00000007,-0.02291211,-0.00769866,-0.00000040,0.00054825,0.02550
 480,-0.02727524,0.00027215,-0.01288307,0.00000015,0.00000007,0.0091136
 9,-0.00000081,0.00000004,0.00499539,-0.00000005,0.00000051,0.02968674,
 -0.02870344,-0.00227054,0.01791592,0.00415162,-0.00114140,0.,-0.015646
 30,0.00438429,-0.00000028,-0.03262187,0.00184390,0.,0.10152335,-0.0038
 9417,-0.00013389,0.00843393,-0.01272698,0.00262021,0.00000007,0.022907
 38,-0.00769227,0.00000049,-0.00184581,-0.02015833,-0.00000051,-0.00054
 616,0.02549874,0.02727662,0.00026999,-0.01288354,0.00000012,0.00000003
 ,0.00911411,-0.00000072,0.00000003,0.00499433,-0.00000012,0.00000049,-
 0.01802964,-0.00000012,-0.00000048,0.02968833,-0.01411498,0.00000069,-
 0.00000086,0.00227343,-0.00000360,0.00000178,0.01052356,0.00000008,0.0
 0000054,-0.02870019,0.00389610,0.02727524,-0.02870348,-0.00389433,-0.0
 2727631,0.05872167,0.00000069,-0.00408734,-0.00720151,-0.00000233,-0.0
 5936980,0.04242624,-0.00000198,-0.04051903,-0.03593443,0.00227216,-0.0
 0013115,-0.00027212,-0.00227049,-0.00013462,-0.00026998,0.00000147,0.1
 0424209,0.00000086,0.00720151,-0.06684145,0.00000150,0.02457894,-0.017
 60567,0.00000024,-0.01616466,-0.00412581,0.01791350,-0.00843420,-0.012
 88313,-0.01791593,-0.00843368,-0.01288360,-0.00000001,0.00125186,0.114
 33948\\0.00000001,0.00967334,-0.01502071,0.00000035,0.01008118,0.,0.00
 000155,-0.01984257,0.,-0.03652781,-0.00479270,0.,0.03652588,-0.0047925
 9,0.,0.00000001,0.00967334,0.01502071\\\@


 LET US LEARN TO DREAM, GENTLEMEN, THEN PERHAPS WE SHALL
 DISCOVER THE TRUTH;  BUT LET US BEWARE OF PUBLISHING
 OUR DREAMS ABROAD BEFORE THEY HAVE BEEN SCRUTINIZED
 BY OUR VIGILANT INTELLECT ... LET US ALWAYS ALLOW
 THE FRUIT TO HANG UNTIL IT IS RIPE.  UNRIPE FRUIT
 BRINGS EVEN THE GROWER BUT LITTLE PROFIT; IT DAMAGES
 THE HEALTH OF THOSE WHO CONSUME IT; IT ENDANGERS
 PARTICULARLY THE YOUTH WHO CANNOT YET DISTINGUISH
 BETWEEN RIPE AND UNRIPE FRUIT.

                                  -- KEKULE, 1890
 Job cpu time:  0 days  0 hours  8 minutes 26.8 seconds.
 File lengths (MBytes):  RWF=     68 Int=      0 D2E=      0 Chk=      8 Scr=      1
 Normal termination of Gaussian 03 at Fri Jun 17 16:19:19 2011.
 Initial command:
 /usr/local/chem/g03E01/l1.exe /temp0/tam/Gau-13235.inp -scrdir=/temp0/tam/
 Entering Link 1 = /usr/local/chem/g03E01/l1.exe PID=     13309.
  
 Copyright (c) 1988,1990,1992,1993,1995,1998,2003,2004,2007, Gaussian, Inc.
                  All Rights Reserved.
  
 This is the Gaussian(R) 03 program.  It is based on the
 the Gaussian(R) 98 system (copyright 1998, Gaussian, Inc.),
 the Gaussian(R) 94 system (copyright 1995, Gaussian, Inc.),
 the Gaussian 92(TM) system (copyright 1992, Gaussian, Inc.),
 the Gaussian 90(TM) system (copyright 1990, Gaussian, Inc.),
 the Gaussian 88(TM) system (copyright 1988, Gaussian, Inc.),
 the Gaussian 86(TM) system (copyright 1986, Carnegie Mellon
 University), and the Gaussian 82(TM) system (copyright 1983,
 Carnegie Mellon University). Gaussian is a federally registered
 trademark of Gaussian, Inc.
  
 This software contains proprietary and confidential information,
 including trade secrets, belonging to Gaussian, Inc.
  
 This software is provided under written license and may be
 used, copied, transmitted, or stored only in accord with that
 written license.
  
 The following legend is applicable only to US Government
 contracts under FAR:
  
                    RESTRICTED RIGHTS LEGEND
  
 Use, reproduction and disclosure by the US Government is
 subject to restrictions as set forth in subparagraphs (a)
 and (c) of the Commercial Computer Software - Restricted
 Rights clause in FAR 52.227-19.
  
 Gaussian, Inc.
 340 Quinnipiac St., Bldg. 40, Wallingford CT 06492
  
  
 ---------------------------------------------------------------
 Warning -- This program may not be used in any manner that
 competes with the business of Gaussian, Inc. or will provide
 assistance to any competitor of Gaussian, Inc.  The licensee
 of this program is prohibited from giving any competitor of
 Gaussian, Inc. access to this program.  By using this program,
 the user acknowledges that Gaussian, Inc. is engaged in the
 business of creating and licensing software in the field of
 computational chemistry and represents and warrants to the
 licensee that it is not a competitor of Gaussian, Inc. and that
 it will not use this program in any manner prohibited above.
 ---------------------------------------------------------------
  

 Cite this work as:
 Gaussian 03, Revision E.01,
 M. J. Frisch, G. W. Trucks, H. B. Schlegel, G. E. Scuseria, 
 M. A. Robb, J. R. Cheeseman, J. A. Montgomery, Jr., T. Vreven, 
 K. N. Kudin, J. C. Burant, J. M. Millam, S. S. Iyengar, J. Tomasi, 
 V. Barone, B. Mennucci, M. Cossi, G. Scalmani, N. Rega, 
 G. A. Petersson, H. Nakatsuji, M. Hada, M. Ehara, K. Toyota, 
 R. Fukuda, J. Hasegawa, M. Ishida, T. Nakajima, Y. Honda, O. Kitao, 
 H. Nakai, M. Klene, X. Li, J. E. Knox, H. P. Hratchian, J. B. Cross, 
 V. Bakken, C. Adamo, J. Jaramillo, R. Gomperts, R. E. Stratmann, 
 O. Yazyev, A. J. Austin, R. Cammi, C. Pomelli, J. W. Ochterski, 
 P. Y. Ayala, K. Morokuma, G. A. Voth, P. Salvador, J. J. Dannenberg, 
 V. G. Zakrzewski, S. Dapprich, A. D. Daniels, M. C. Strain, 
 O. Farkas, D. K. Malick, A. D. Rabuck, K. Raghavachari, 
 J. B. Foresman, J. V. Ortiz, Q. Cui, A. G. Baboul, S. Clifford, 
 J. Cioslowski, B. B. Stefanov, G. Liu, A. Liashenko, P. Piskorz, 
 I. Komaromi, R. L. Martin, D. J. Fox, T. Keith, M. A. Al-Laham, 
 C. Y. Peng, A. Nanayakkara, M. Challacombe, P. M. W. Gill, 
 B. Johnson, W. Chen, M. W. Wong, C. Gonzalez, and J. A. Pople, 
 Gaussian, Inc., Wallingford CT, 2004.
 
 ******************************************
 Gaussian 03:  AM64L-G03RevE.01 11-Sep-2007
                17-Jun-2011 
 ******************************************
 %NprocShared=4
 Will use up to    4 processors via shared memory.
 %mem=3750MB
 %chk=S9L-ne-d-01
 ----------------------------------------------------------------------
 # b3lyp/6-311+G(d) opt=(readfc,noeigentest,maxcycle=500) freq scfcyc=5
 00 optcyc=500 scf=xqc geom=allcheck guess=read
 ----------------------------------------------------------------------
 1/6=500,10=3,11=1,14=-1,18=20,26=3,29=7,38=1/1,3;
 2/9=110,40=1/2;
 3/5=4,6=6,7=11,11=2,16=1,25=1,30=1,74=-5/1,2,3;
 4/5=1/1;
 5/5=2,7=500,8=3,13=1,38=6/2,8;
 6/7=2,8=2,9=2,10=2,28=1/1;
 7//1,2,3,16;
 1/6=500,11=1,14=-1,18=20/3(3);
 2/9=110/2;
 6/7=2,8=2,9=2,10=2,19=2,28=1/1;
 99//99;
 2/9=110/2;
 3/5=4,6=6,7=11,11=2,16=1,25=1,30=1,74=-5/1,2,3;
 4/5=5,16=3/1;
 5/5=2,7=500,8=3,13=1,38=5/2,8;
 7//1,2,3,16;
 1/6=500,11=1,14=-1,18=20/3(-5);
 2/9=110/2;
 6/7=2,8=2,9=2,10=2,19=2,28=1/1;
 99/9=1/99;
 -----
 si5-c
 -----
 No Z-matrix found on checkpoint file.
 Cartesian coordinates read from the checkpoint file:
 S9L-ne-d-01.chk
 Charge =  1 Multiplicity = 2
  Si                                                0.000023000000     -0.176499000000      1.351205000000
  Si                                               -0.000113000000     -2.089546000000      0.000000000000
  Si                                                0.000023000000      1.852317000000      0.000000000000
  Si                                               -1.949797000000      0.295151000000      0.000000000000
  Si                                                1.949842000000      0.295076000000      0.000000000000
  Si                                                0.000023000000     -0.176499000000     -1.351205000000
 Recover connectivity data from disk.

 GradGradGradGradGradGradGradGradGradGradGradGradGradGradGradGradGradGrad
 Berny optimization.
 Initialization pass.
 No redundant coordinates on chk file, so ReadFC converted to ReadCartesianFC.
 Cartesian force constants read from checkpoint file:
 S9L-ne-d-01.chk
                           ----------------------------
                           !    Initial Parameters    !
                           ! (Angstroms and Degrees)  !
 --------------------------                            --------------------------
 ! Name  Definition              Value          Derivative Info.                !
 --------------------------------------------------------------------------------
 ! R1    R(1,2)                  2.3421         D2E/DX2 =    0.0698             !
 ! R2    R(1,3)                  2.4376         D2E/DX2 =    0.0479             !
 ! R3    R(1,4)                  2.4187         D2E/DX2 =    0.0364             !
 ! R4    R(1,5)                  2.4187         D2E/DX2 =    0.0364             !
 ! R5    R(1,6)                  2.7024         D2E/DX2 =    0.0312             !
 ! R6    R(2,6)                  2.3421         D2E/DX2 =    0.0698             !
 ! R7    R(3,4)                  2.4953         D2E/DX2 =    0.028              !
 ! R8    R(3,5)                  2.4954         D2E/DX2 =    0.028              !
 ! R9    R(3,6)                  2.4376         D2E/DX2 =    0.0479             !
 ! R10   R(4,6)                  2.4187         D2E/DX2 =    0.0364             !
 ! R11   R(5,6)                  2.4187         D2E/DX2 =    0.0364             !
 ! A1    A(2,1,3)              111.1022         D2E/DX2 =    0.0046             !
 ! A2    A(2,1,4)               80.6152         D2E/DX2 =    0.0092             !
 ! A3    A(2,1,5)               80.6191         D2E/DX2 =    0.0092             !
 ! A4    A(4,1,5)              107.4436         D2E/DX2 =    0.0035             !
 ! A5    A(4,3,5)              102.7755         D2E/DX2 =    0.0037             !
 ! A6    A(2,6,3)              111.1022         D2E/DX2 =    0.0046             !
 ! A7    A(2,6,4)               80.6152         D2E/DX2 =    0.0092             !
 ! A8    A(2,6,5)               80.6191         D2E/DX2 =    0.0092             !
 ! A9    A(4,6,5)              107.4436         D2E/DX2 =    0.0035             !
 ! A10   L(2,1,3,-3,-1)        179.9959         D2E/DX2 =    0.0058             !
 ! A11   L(2,6,3,-3,-1)        179.9959         D2E/DX2 =    0.0058             !
 ! A12   L(2,1,3,-1,-2)        248.8978         D2E/DX2 =    0.0046             !
 ! A13   L(2,6,3,-1,-2)        111.1022         D2E/DX2 =    0.0046             !
 --------------------------------------------------------------------------------
 Trust Radius=3.00D-01 FncErr=1.00D-07 GrdErr=1.00D-06
 Number of steps in this run= 100 maximum allowed number of steps= 100.
 GradGradGradGradGradGradGradGradGradGradGradGradGradGradGradGradGradGrad

                          Input orientation:                          
 ---------------------------------------------------------------------
 Center     Atomic     Atomic              Coordinates (Angstroms)
 Number     Number      Type              X           Y           Z
 ---------------------------------------------------------------------
    1         14             0        0.000023   -0.176499    1.351205
    2         14             0       -0.000113   -2.089546    0.000000
    3         14             0        0.000023    1.852317    0.000000
    4         14             0       -1.949797    0.295151    0.000000
    5         14             0        1.949842    0.295076    0.000000
    6         14             0        0.000023   -0.176499   -1.351205
 ---------------------------------------------------------------------
                    Distance matrix (angstroms):
                    1          2          3          4          5
     1  Si   0.000000
     2  Si   2.342115   0.000000
     3  Si   2.437591   3.941863   0.000000
     4  Si   2.418679   3.080267   2.495308   0.000000
     5  Si   2.418663   3.080381   2.495354   3.899639   0.000000
     6  Si   2.702410   2.342115   2.437591   2.418679   2.418663
                    6
     6  Si   0.000000
 Stoichiometry    Si6(1+,2)
 Framework group  CS[SG(Si4),X(Si2)]
 Deg. of freedom     8
 Full point group                 CS
 Largest Abelian subgroup         CS      NOp   2
 Largest concise Abelian subgroup CS      NOp   2
                         Standard orientation:                         
 ---------------------------------------------------------------------
 Center     Atomic     Atomic              Coordinates (Angstroms)
 Number     Number      Type              X           Y           Z
 ---------------------------------------------------------------------
    1         14             0        0.000023   -0.176499    1.351205
    2         14             0       -0.000113   -2.089546    0.000000
    3         14             0        0.000023    1.852317    0.000000
    4         14             0       -1.949797    0.295151    0.000000
    5         14             0        1.949842    0.295076    0.000000
    6         14             0        0.000023   -0.176499   -1.351205
 ---------------------------------------------------------------------
 Rotational constants (GHZ):      1.6049730      1.5458883      1.1551908
 Standard basis: 6-311+G(d) (5D, 7F)
 There are   118 symmetry adapted basis functions of A'  symmetry.
 There are    62 symmetry adapted basis functions of A"  symmetry.
 Integral buffers will be    131072 words long.
 Raffenetti 2 integral format.
 Two-electron integral symmetry is turned on.
   180 basis functions,   300 primitive gaussians,   186 cartesian basis functions
    42 alpha electrons       41 beta electrons
       nuclear repulsion energy       586.9600993334 Hartrees.
 NAtoms=    6 NActive=    6 NUniq=    5 SFac= 1.08D+00 NAtFMM=   80 NAOKFM=F Big=F
 One-electron integrals computed using PRISM.
 NBasis=   180 RedAO= T  NBF=   118    62
 NBsUse=   180 1.00D-06 NBFU=   118    62
 Initial guess read from the checkpoint file:
 S9L-ne-d-01.chk
 Initial guess orbital symmetries:
 Alpha Orbitals:
       Occupied  (A') (A') (A') (A') (A') (A") (A') (A') (A') (A')
                 (A') (A") (A') (A') (A') (A') (A") (A") (A') (A')
                 (A") (A') (A") (A') (A') (A") (A') (A") (A') (A")
                 (A') (A') (A') (A") (A') (A') (A') (A") (A") (A')
                 (A') (A')
       Virtual   (A') (A") (A") (A') (A') (A") (A') (A') (A') (A")
                 (A') (A") (A') (A') (A') (A") (A') (A") (A') (A')
                 (A") (A') (A") (A') (A") (A') (A') (A") (A') (A")
                 (A') (A') (A') (A") (A') (A") (A') (A') (A") (A")
                 (A") (A') (A') (A') (A') (A") (A') (A") (A') (A')
                 (A") (A') (A") (A') (A') (A") (A') (A") (A') (A')
                 (A') (A') (A") (A") (A') (A") (A') (A') (A") (A")
                 (A") (A') (A') (A") (A') (A') (A') (A") (A") (A')
                 (A') (A') (A') (A") (A') (A') (A') (A") (A') (A')
                 (A') (A') (A") (A') (A") (A') (A") (A") (A') (A')
                 (A') (A") (A") (A') (A") (A') (A') (A') (A') (A')
                 (A') (A") (A') (A') (A') (A') (A') (A') (A') (A')
                 (A') (A') (A') (A') (A') (A') (A') (A') (A') (A')
                 (A") (A") (A") (A") (A") (A") (A") (A")
 Beta  Orbitals:
       Occupied  (A') (A') (A') (A') (A') (A") (A') (A') (A') (A')
                 (A') (A") (A') (A') (A") (A") (A') (A') (A') (A')
                 (A") (A') (A") (A') (A') (A") (A') (A") (A') (A")
                 (A') (A') (A') (A") (A') (A') (A") (A") (A') (A')
                 (A')
       Virtual   (A') (A') (A") (A") (A') (A") (A') (A') (A') (A')
                 (A") (A') (A") (A') (A') (A") (A') (A') (A") (A')
                 (A") (A') (A") (A') (A') (A") (A') (A') (A") (A')
                 (A") (A') (A') (A') (A') (A") (A") (A') (A') (A")
                 (A") (A") (A') (A') (A') (A') (A") (A') (A") (A')
                 (A') (A") (A') (A") (A') (A') (A") (A') (A") (A')
                 (A') (A') (A") (A') (A") (A') (A") (A') (A') (A")
                 (A") (A") (A') (A') (A") (A') (A') (A') (A") (A")
                 (A') (A') (A') (A') (A") (A') (A') (A') (A") (A')
                 (A') (A') (A') (A") (A") (A') (A') (A") (A") (A')
                 (A') (A') (A") (A") (A') (A") (A') (A') (A') (A')
                 (A') (A') (A") (A') (A') (A') (A') (A') (A') (A')
                 (A') (A') (A') (A') (A') (A') (A') (A') (A') (A')
                 (A') (A") (A") (A") (A") (A") (A") (A") (A")
 <S**2> of initial guess= 0.8290
 Requested convergence on RMS density matrix=1.00D-08 within 128 cycles.
 Requested convergence on MAX density matrix=1.00D-06.
 Requested convergence on             energy=1.00D-06.
 No special actions if energy rises.
 Keep R1 and R2 integrals in memory in canonical form, NReq=   306743575.
 Restarting incremental Fock formation.
 SCF Done:  E(UB+HF-LYP) =  -1736.73409358     A.U. after   22 cycles
             Convg  =    0.7779D-08             -V/T =  2.0017
             S**2   =   0.7620
 Annihilation of the first spin contaminant:
 S**2 before annihilation     0.7620,   after     0.7500
 QCSCF skips out because SCF is already converged.

 **********************************************************************

            Population analysis using the SCF density.

 **********************************************************************

 Orbital symmetries:
 Alpha Orbitals:
       Occupied  (A') (A') (A') (A') (A') (A") (A') (A') (A') (A')
                 (A') (A") (A') (A') (A') (A') (A") (A") (A') (A")
                 (A') (A") (A') (A') (A') (A") (A') (A") (A') (A")
                 (A') (A') (A') (A") (A') (A') (A") (A") (A') (A')
                 (A') (A')
       Virtual   (A') (A") (A") (A') (A') (A") (A') (A') (A") (A')
                 (A') (A") (A') (A') (A") (A') (A') (A") (A') (A")
                 (A') (A') (A') (A") (A") (A') (A') (A') (A") (A')
                 (A') (A") (A') (A') (A") (A') (A') (A") (A') (A")
                 (A') (A') (A') (A') (A") (A') (A") (A') (A') (A")
                 (A") (A') (A') (A") (A') (A") (A') (A") (A') (A')
                 (A') (A") (A") (A') (A") (A') (A") (A') (A') (A')
                 (A') (A") (A") (A') (A') (A") (A') (A') (A') (A")
                 (A') (A') (A") (A') (A') (A") (A") (A') (A') (A")
                 (A') (A') (A") (A") (A") (A') (A') (A") (A') (A')
                 (A') (A") (A") (A') (A') (A') (A') (A") (A') (A")
                 (A') (A') (A') (A') (A') (A') (A") (A') (A") (A')
                 (A") (A") (A') (A') (A') (A") (A") (A') (A") (A')
                 (A') (A') (A') (A") (A') (A') (A') (A')
 Beta  Orbitals:
       Occupied  (A') (A') (A') (A') (A') (A") (A') (A') (A') (A')
                 (A') (A") (A') (A') (A") (A") (A') (A') (A') (A")
                 (A') (A") (A') (A') (A') (A") (A') (A") (A') (A")
                 (A') (A') (A') (A") (A') (A') (A") (A") (A') (A')
                 (A')
       Virtual   (A') (A") (A') (A") (A') (A") (A') (A') (A') (A')
                 (A') (A") (A") (A') (A') (A") (A') (A') (A") (A')
                 (A") (A') (A') (A') (A") (A") (A') (A') (A') (A")
                 (A') (A') (A") (A') (A') (A") (A') (A") (A') (A')
                 (A") (A') (A') (A') (A') (A") (A') (A") (A') (A')
                 (A") (A") (A') (A') (A") (A') (A") (A') (A") (A')
                 (A') (A') (A") (A") (A") (A') (A") (A') (A') (A')
                 (A') (A') (A") (A") (A') (A') (A") (A') (A') (A')
                 (A") (A') (A') (A") (A') (A") (A') (A") (A') (A')
                 (A") (A') (A') (A") (A") (A") (A') (A') (A") (A')
                 (A') (A') (A") (A") (A') (A') (A') (A') (A") (A')
                 (A") (A') (A') (A') (A') (A') (A') (A") (A") (A')
                 (A') (A") (A") (A') (A') (A') (A") (A") (A') (A")
                 (A') (A') (A') (A') (A") (A') (A') (A') (A')
 The electronic state is 2-A'.
 Alpha  occ. eigenvalues --  -66.33560 -66.33560 -66.30413 -66.29788 -66.28608
 Alpha  occ. eigenvalues --  -66.28608  -5.50176  -5.50175  -5.47156  -5.46659
 Alpha  occ. eigenvalues --   -5.45856  -5.45850  -3.86137  -3.86137  -3.85918
 Alpha  occ. eigenvalues --   -3.85917  -3.85858  -3.85857  -3.83155  -3.82849
 Alpha  occ. eigenvalues --   -3.82658  -3.82531  -3.82418  -3.82264  -3.81761
 Alpha  occ. eigenvalues --   -3.81750  -3.81601  -3.81600  -3.81468  -3.81468
 Alpha  occ. eigenvalues --   -0.85677  -0.69625  -0.68699  -0.63710  -0.55902
 Alpha  occ. eigenvalues --   -0.51723  -0.44585  -0.44576  -0.44502  -0.43266
 Alpha  occ. eigenvalues --   -0.43071  -0.39079
 Alpha virt. eigenvalues --   -0.27419  -0.27101  -0.26276  -0.25659  -0.19961
 Alpha virt. eigenvalues --   -0.19044  -0.16543  -0.16519  -0.14395  -0.14154
 Alpha virt. eigenvalues --   -0.14098  -0.10975  -0.09533  -0.07716  -0.07343
 Alpha virt. eigenvalues --   -0.07043  -0.06507  -0.06317  -0.06085  -0.05317
 Alpha virt. eigenvalues --   -0.04983  -0.03158  -0.02742  -0.02425  -0.01639
 Alpha virt. eigenvalues --   -0.01503  -0.01335  -0.00137  -0.00002   0.00717
 Alpha virt. eigenvalues --    0.01787   0.02345   0.02552   0.03703   0.04248
 Alpha virt. eigenvalues --    0.04976   0.07303   0.07891   0.08164   0.08371
 Alpha virt. eigenvalues --    0.08856   0.09750   0.13061   0.13882   0.14378
 Alpha virt. eigenvalues --    0.14992   0.15344   0.17607   0.18313   0.18686
 Alpha virt. eigenvalues --    0.19003   0.20081   0.20158   0.22690   0.24430
 Alpha virt. eigenvalues --    0.24771   0.25620   0.28597   0.31026   0.31275
 Alpha virt. eigenvalues --    0.34535   0.34837   0.34940   0.36866   0.36971
 Alpha virt. eigenvalues --    0.40153   0.40995   0.41332   0.41985   0.44660
 Alpha virt. eigenvalues --    0.46457   0.47288   0.49655   0.52055   0.54421
 Alpha virt. eigenvalues --    0.55446   0.55721   0.57751   0.59740   0.62898
 Alpha virt. eigenvalues --    0.68722   0.70016   0.70951   0.71289   0.74000
 Alpha virt. eigenvalues --    0.74120   0.74349   0.75447   0.79378   0.80242
 Alpha virt. eigenvalues --    1.02505   1.06221   1.08481   1.09247   1.12381
 Alpha virt. eigenvalues --    1.13306   1.14685   1.16580   1.17803   1.22711
 Alpha virt. eigenvalues --    1.23707   1.24992   1.26239   1.33441   1.34845
 Alpha virt. eigenvalues --    1.36474   1.38922   1.44215   5.19509   5.23658
 Alpha virt. eigenvalues --    5.25023   5.26301   5.27876   5.44346  11.06789
 Alpha virt. eigenvalues --   11.09362  11.10224  11.11760  11.11863  11.12460
 Alpha virt. eigenvalues --   11.13610  11.15675  11.16683  11.16721  11.20395
 Alpha virt. eigenvalues --   11.22654  11.23238  11.24747  11.32091  11.33604
 Alpha virt. eigenvalues --   11.34533  11.48345 140.62614 140.68656 140.68914
 Alpha virt. eigenvalues --  140.70424 140.72106 140.94305
  Beta  occ. eigenvalues --  -66.33346 -66.33345 -66.30415 -66.29756 -66.28586
  Beta  occ. eigenvalues --  -66.28585  -5.49938  -5.49936  -5.47158  -5.46627
  Beta  occ. eigenvalues --   -5.45834  -5.45829  -3.85772  -3.85772  -3.85712
  Beta  occ. eigenvalues --   -3.85711  -3.85535  -3.85534  -3.83154  -3.82851
  Beta  occ. eigenvalues --   -3.82666  -3.82516  -3.82284  -3.82265  -3.81757
  Beta  occ. eigenvalues --   -3.81746  -3.81504  -3.81503  -3.81463  -3.81462
  Beta  occ. eigenvalues --   -0.85102  -0.68497  -0.68243  -0.63482  -0.53678
  Beta  occ. eigenvalues --   -0.50525  -0.44532  -0.44096  -0.44014  -0.42926
  Beta  occ. eigenvalues --   -0.39036
  Beta virt. eigenvalues --   -0.35637  -0.26733  -0.26729  -0.26007  -0.25529
  Beta virt. eigenvalues --   -0.18711  -0.18141  -0.16281  -0.15949  -0.13600
  Beta virt. eigenvalues --   -0.13447  -0.13300  -0.10970  -0.09228  -0.07657
  Beta virt. eigenvalues --   -0.07329  -0.06723  -0.06490  -0.06319  -0.05825
  Beta virt. eigenvalues --   -0.05247  -0.04824  -0.02996  -0.02694  -0.02407
  Beta virt. eigenvalues --   -0.01630  -0.01359  -0.01287  -0.00103   0.00196
  Beta virt. eigenvalues --    0.00764   0.01944   0.02346   0.02591   0.04245
  Beta virt. eigenvalues --    0.04362   0.05172   0.08030   0.08037   0.08242
  Beta virt. eigenvalues --    0.08360   0.09104   0.09882   0.13475   0.14386
  Beta virt. eigenvalues --    0.14470   0.15147   0.15370   0.17766   0.18725
  Beta virt. eigenvalues --    0.19092   0.19210   0.20106   0.20711   0.22701
  Beta virt. eigenvalues --    0.25022   0.25306   0.25779   0.28998   0.31248
  Beta virt. eigenvalues --    0.31790   0.35191   0.35409   0.35637   0.37059
  Beta virt. eigenvalues --    0.37596   0.41425   0.41799   0.41972   0.42565
  Beta virt. eigenvalues --    0.44767   0.47360   0.47663   0.50203   0.52726
  Beta virt. eigenvalues --    0.54528   0.55791   0.56108   0.58217   0.59918
  Beta virt. eigenvalues --    0.63139   0.69446   0.70543   0.71384   0.72166
  Beta virt. eigenvalues --    0.74122   0.74167   0.75104   0.76506   0.79434
  Beta virt. eigenvalues --    0.80358   1.02655   1.06623   1.08879   1.09427
  Beta virt. eigenvalues --    1.12683   1.13541   1.15268   1.16669   1.18063
  Beta virt. eigenvalues --    1.23162   1.24137   1.25372   1.26288   1.33582
  Beta virt. eigenvalues --    1.36118   1.36927   1.39242   1.44377   5.19881
  Beta virt. eigenvalues --    5.23716   5.25539   5.26459   5.27926   5.44412
  Beta virt. eigenvalues --   11.06931  11.09506  11.10417  11.12016  11.12174
  Beta virt. eigenvalues --   11.12748  11.13653  11.15684  11.16768  11.17022
  Beta virt. eigenvalues --   11.20558  11.22781  11.23248  11.24861  11.32102
  Beta virt. eigenvalues --   11.33646  11.35015  11.48480 140.62780 140.68676
  Beta virt. eigenvalues --  140.69137 140.70489 140.72122 140.94331
          Condensed to atoms (all electrons):
              1          2          3          4          5          6
     1  Si  15.926744  -1.169259  -0.465752  -0.644310  -0.644424   1.171866
     2  Si  -1.169259  14.553057   0.134409   0.594064   0.594122  -1.169259
     3  Si  -0.465752   0.134409  14.010319   0.354071   0.354106  -0.465752
     4  Si  -0.644310   0.594064   0.354071  13.647593   0.288794  -0.644310
     5  Si  -0.644424   0.594122   0.354106   0.288794  13.647658  -0.644424
     6  Si   1.171866  -1.169259  -0.465752  -0.644310  -0.644424  15.926744
 Mulliken atomic charges:
              1
     1  Si  -0.174866
     2  Si   0.462865
     3  Si   0.078600
     4  Si   0.404099
     5  Si   0.404168
     6  Si  -0.174866
 Sum of Mulliken charges=   1.00000
 Atomic charges with hydrogens summed into heavy atoms:
              1
     1  Si  -0.174866
     2  Si   0.462865
     3  Si   0.078600
     4  Si   0.404099
     5  Si   0.404168
     6  Si  -0.174866
 Sum of Mulliken charges=   1.00000
          Atomic-Atomic Spin Densities.
              1          2          3          4          5          6
     1  Si   0.011537  -0.012605  -0.012798  -0.000183  -0.000199   0.028146
     2  Si  -0.012605  -0.010685  -0.005442   0.026527   0.026492  -0.012605
     3  Si  -0.012798  -0.005442   0.031537   0.036148   0.036216  -0.012798
     4  Si  -0.000183   0.026527   0.036148   0.387981  -0.006500  -0.000183
     5  Si  -0.000199   0.026492   0.036216  -0.006500   0.388063  -0.000199
     6  Si   0.028146  -0.012605  -0.012798  -0.000183  -0.000199   0.011537
 Mulliken atomic spin densities:
              1
     1  Si   0.013897
     2  Si   0.011682
     3  Si   0.072862
     4  Si   0.443790
     5  Si   0.443872
     6  Si   0.013897
 Sum of Mulliken spin densities=   1.00000
 Electronic spatial extent (au):  <R**2>=  1106.2449
 Charge=     1.0000 electrons
 Dipole moment (field-independent basis, Debye):
    X=     0.0002    Y=    -0.0961    Z=     0.0000  Tot=     0.0961
 Quadrupole moment (field-independent basis, Debye-Ang):
   XX=   -54.6381   YY=   -67.3082   ZZ=   -68.9135
   XY=    -0.0004   XZ=     0.0000   YZ=     0.0000
 Traceless Quadrupole moment (field-independent basis, Debye-Ang):
   XX=     8.9818   YY=    -3.6882   ZZ=    -5.2935
   XY=    -0.0004   XZ=     0.0000   YZ=     0.0000
 Octapole moment (field-independent basis, Debye-Ang**2):
  XXX=     0.0028  YYY=    -3.1724  ZZZ=     0.0000  XYY=    -0.0006
  XXY=     3.5641  XXZ=     0.0000  XZZ=     0.0000  YZZ=     0.5425
  YYZ=     0.0000  XYZ=     0.0000
 Hexadecapole moment (field-independent basis, Debye-Ang**3):
 XXXX=  -539.4379 YYYY=  -721.6965 ZZZZ=  -373.0234 XXXY=    -0.0070
 XXXZ=     0.0000 YYYX=    -0.0087 YYYZ=     0.0000 ZZZX=     0.0000
 ZZZY=     0.0000 XXYY=  -218.0970 XXZZ=  -170.6130 YYZZ=  -180.7956
 XXYZ=     0.0000 YYXZ=     0.0000 ZZXY=    -0.0016
 N-N= 5.869600993334D+02 E-N=-5.297383438454D+03  KE= 1.733870674035D+03
 Symmetry A'   KE= 1.344697011935D+03
 Symmetry A"   KE= 3.891736620999D+02
                          Isotropic Fermi Contact Couplings
        Atom                 a.u.       MegaHertz       Gauss      10(-4) cm-1
     1  Si(29)            -0.01604      14.25937       5.08810       4.75641
     2  Si(29)             0.00268      -2.38080      -0.84953      -0.79415
     3  Si(29)            -0.00310       2.75546       0.98322       0.91912
     4  Si(29)             0.36550    -324.83177    -115.90805    -108.35221
     5  Si(29)             0.36544    -324.77603    -115.88816    -108.33362
     6  Si(29)            -0.01604      14.25937       5.08810       4.75641
[...]
     3   Atom        0.252465     -0.141445     -0.111020
     4   Atom        0.945143     -0.466274     -0.478869
     5   Atom        0.945150     -0.466265     -0.478885
     6   Atom        0.170485     -0.088617     -0.081868
 --------------------------------------------------------
                        XY            XZ            YZ
 --------------------------------------------------------
     1   Atom       -0.000010     -0.000006     -0.003289
     2   Atom        0.000008      0.000000      0.000000
     3   Atom       -0.000039      0.000000      0.000000
     4   Atom        0.115284      0.000000      0.000000
     5   Atom       -0.115447      0.000000      0.000000
     6   Atom       -0.000010      0.000006      0.003289
 --------------------------------------------------------


 ---------------------------------------------------------------------------------
              Anisotropic Spin Dipole Couplings in Principal Axis System
 ---------------------------------------------------------------------------------

       Atom             a.u.   MegaHertz   Gauss  10(-4) cm-1        Axes

              Baa    -0.0900     9.543     3.405     3.183  0.0000  0.9263  0.3768
     1 Si(29) Bbb    -0.0805     8.543     3.048     2.850  0.0000 -0.3768  0.9263
              Bcc     0.1705   -18.086    -6.453    -6.033  1.0000  0.0000  0.0000
 
              Baa    -0.0211     2.244     0.801     0.748 -0.0002  1.0000  0.0000
     2 Si(29) Bbb    -0.0090     0.957     0.341     0.319  0.0000  0.0000  1.0000
              Bcc     0.0302    -3.201    -1.142    -1.068  1.0000  0.0002  0.0000
 
              Baa    -0.1414    15.005     5.354     5.005  0.0001  1.0000  0.0000
     3 Si(29) Bbb    -0.1110    11.777     4.202     3.929  0.0000  0.0000  1.0000
              Bcc     0.2525   -26.782    -9.557    -8.934  1.0000 -0.0001  0.0000
 
              Baa    -0.4789    50.800    18.127    16.945  0.0000  0.0000  1.0000
     4 Si(29) Bbb    -0.4756    50.457    18.004    16.830 -0.0809  0.9967  0.0000
              Bcc     0.9545  -101.257   -36.131   -33.776  0.9967  0.0809  0.0000
 
              Baa    -0.4789    50.802    18.127    16.946  0.0000  0.0000  1.0000
     5 Si(29) Bbb    -0.4756    50.458    18.005    16.831  0.0810  0.9967  0.0000
              Bcc     0.9545  -101.261   -36.132   -33.777  0.9967 -0.0810  0.0000
 
              Baa    -0.0900     9.543     3.405     3.183  0.0000  0.9263 -0.3768
     6 Si(29) Bbb    -0.0805     8.543     3.048     2.850  0.0000  0.3768  0.9263
              Bcc     0.1705   -18.086    -6.453    -6.033  1.0000  0.0000  0.0000
 

 ---------------------------------------------------------------------------------

 Full mass-weighted force constant matrix:
 Low frequencies ---   -1.9168   -0.0015    0.0006    0.0010    5.5783    9.8780
 Low frequencies ---   69.5253   90.3688  152.7806
 Diagonal vibrational polarizability:
        2.0528452       4.9960406       0.1688744
 Harmonic frequencies (cm**-1), IR intensities (KM/Mole), Raman scattering
 activities (A**4/AMU), depolarization ratios for plane and unpolarized
 incident light, reduced masses (AMU), force constants (mDyne/A),
 and normal coordinates:
                     1                      2                      3
                    A'                     A"                     A'
 Frequencies --    69.5251                90.3457               152.7806
 Red. masses --    27.9769                27.9769                27.9769
 Frc consts  --     0.0797                 0.1345                 0.3848
 IR Inten    --     0.1631                 0.0056                 0.0163
 Atom AN      X      Y      Z        X      Y      Z        X      Y      Z
   1  14    -0.33   0.00   0.00     0.00  -0.06  -0.15     0.00   0.31  -0.15
   2  14     0.70   0.00   0.00     0.00   0.00   0.43     0.00   0.41   0.00
   3  14     0.34   0.00   0.00     0.00   0.00   0.67     0.00   0.05   0.00
   4  14    -0.19   0.22   0.00     0.00   0.00  -0.40     0.02  -0.54   0.00
   5  14    -0.19  -0.22   0.00     0.00   0.00  -0.40    -0.02  -0.54   0.00
   6  14    -0.33   0.00   0.00     0.00   0.06  -0.15     0.00   0.31   0.15
                     4                      5                      6
                    A'                     A'                     A"
 Frequencies --   299.3367               306.5299               309.3418
 Red. masses --    27.9769                27.9769                27.9769
 Frc consts  --     1.4770                 1.5488                 1.5773
 IR Inten    --     0.8753                 0.6556                 0.2323
 Atom AN      X      Y      Z        X      Y      Z        X      Y      Z
   1  14     0.00  -0.28  -0.36    -0.23   0.00   0.00     0.00   0.25   0.51
   2  14     0.00   0.07   0.00    -0.20   0.00   0.00     0.00   0.00  -0.06
   3  14     0.00   0.47   0.00     0.62   0.00   0.00     0.00   0.00  -0.17
   4  14     0.43   0.01   0.00     0.02  -0.49   0.00     0.00   0.00  -0.40
   5  14    -0.43   0.01   0.00     0.02   0.49   0.00     0.00   0.00  -0.40
   6  14     0.00  -0.28   0.36    -0.23   0.00   0.00     0.00  -0.25   0.51
                     7                      8                      9
                    A'                     A"                     A"
 Frequencies --   334.1336               353.4051               370.4656
 Red. masses --    27.9769                27.9769                27.9769
 Frc consts  --     1.8403                 2.0587                 2.2623
 IR Inten    --     0.0342                 0.3947                 0.0000
 Atom AN      X      Y      Z        X      Y      Z        X      Y      Z
   1  14     0.00   0.03   0.31     0.00   0.52  -0.21     0.55   0.00   0.00
   2  14     0.00  -0.41   0.00     0.00   0.00   0.54     0.00   0.00   0.00
   3  14     0.00   0.74   0.00     0.00   0.00  -0.25     0.00   0.00   0.00
   4  14    -0.10  -0.20   0.00     0.00   0.00   0.07     0.00   0.00   0.44
   5  14     0.10  -0.20   0.00     0.00   0.00   0.07     0.00   0.00  -0.44
   6  14     0.00   0.03  -0.31     0.00  -0.52  -0.21    -0.55   0.00   0.00
                    10                     11                     12
                    A'                     A'                     A'
 Frequencies --   405.1712               410.7577               442.1213
 Red. masses --    27.9769                27.9769                27.9769
 Frc consts  --     2.7060                 2.7811                 3.2221
 IR Inten    --    28.7073                 5.9992                 0.0015
 Atom AN      X      Y      Z        X      Y      Z        X      Y      Z
   1  14     0.00  -0.39   0.19     0.41   0.00   0.00     0.00   0.03   0.47
   2  14     0.00   0.68   0.00    -0.03   0.00   0.00     0.00   0.18   0.00
   3  14     0.00   0.17   0.00     0.29   0.00   0.00     0.00  -0.18   0.00
   4  14    -0.25  -0.03   0.00    -0.54  -0.02   0.00     0.49  -0.03   0.00
   5  14     0.25  -0.03   0.00    -0.54   0.02   0.00    -0.50  -0.03   0.00
   6  14     0.00  -0.39  -0.19     0.41   0.00   0.00     0.00   0.03  -0.47

 -------------------
 - Thermochemistry -
 -------------------
 Temperature   298.150 Kelvin.  Pressure   1.00000 Atm.
 Atom  1 has atomic number 14 and mass  27.97693
 Atom  2 has atomic number 14 and mass  27.97693
 Atom  3 has atomic number 14 and mass  27.97693
 Atom  4 has atomic number 14 and mass  27.97693
 Atom  5 has atomic number 14 and mass  27.97693
 Atom  6 has atomic number 14 and mass  27.97693
 Molecular mass:   167.86157 amu.
 Principal axes and moments of inertia in atomic units:
                           1         2         3
     EIGENVALUES --  1058.815231283.704571526.59785
           X           -0.00003   1.00000   0.00000
           Y            1.00000   0.00003   0.00000
           Z            0.00000   0.00000   1.00000
 This molecule is an asymmetric top.
 Rotational symmetry number  1.
 Warning -- assumption of classical behavior for rotation
           may cause significant error
 Rotational temperatures (Kelvin)      0.08180     0.06747     0.05674
 Rotational constants (GHZ):           1.70449     1.40589     1.18220
 Zero-point vibrational energy      21197.3 (Joules/Mol)
                                    5.06628 (Kcal/Mol)
 Warning -- explicit consideration of  12 degrees of freedom as
           vibrations may cause significant error
 Vibrational temperatures:    100.03   129.99   219.82   430.68   441.03
          (Kelvin)            445.07   480.74   508.47   533.02   582.95
                              590.99   636.11
 
 Zero-point correction=                           0.008074 (Hartree/Particle)
 Thermal correction to Energy=                    0.016284
 Thermal correction to Enthalpy=                  0.017228
 Thermal correction to Gibbs Free Energy=        -0.026740
 Sum of electronic and zero-point Energies=          -1736.740469
 Sum of electronic and thermal Energies=             -1736.732258
 Sum of electronic and thermal Enthalpies=           -1736.731314
 Sum of electronic and thermal Free Energies=        -1736.775282
 
                     E (Thermal)             CV                S
                      KCal/Mol        Cal/Mol-Kelvin    Cal/Mol-Kelvin
 Total                   10.218             25.771             92.539
 Electronic               0.000              0.000              1.377
 Translational            0.889              2.981             41.262
 Rotational               0.889              2.981             29.119
 Vibrational              8.441             19.809             20.781
 Vibration  1             0.598              1.969              4.167
 Vibration  2             0.602              1.956              3.653
 Vibration  3             0.619              1.900              2.637
 Vibration  4             0.692              1.675              1.421
 Vibration  5             0.697              1.661              1.381
 Vibration  6             0.699              1.656              1.366
 Vibration  7             0.716              1.607              1.240
 Vibration  8             0.730              1.568              1.151
 Vibration  9             0.742              1.533              1.078
 Vibration 10             0.770              1.459              0.944
 Vibration 11             0.775              1.447              0.924
 Vibration 12             0.802              1.378              0.820
                       Q            Log10(Q)             Ln(Q)
 Total Bot       0.199290D+13         12.299485         28.320610
 Total V=0       0.103060D+17         16.013090         36.871501
 Vib (Bot)       0.226059D-01         -1.645779         -3.789545
 Vib (Bot)  1    0.296664D+01          0.472265          1.087431
 Vib (Bot)  2    0.227562D+01          0.357100          0.822253
 Vib (Bot)  3    0.132612D+01          0.122582          0.282255
 Vib (Bot)  4    0.635564D+00         -0.196841         -0.453242
 Vib (Bot)  5    0.618119D+00         -0.208928         -0.481074
 Vib (Bot)  6    0.611508D+00         -0.213598         -0.491827
 Vib (Bot)  7    0.557769D+00         -0.253546         -0.583811
 Vib (Bot)  8    0.520905D+00         -0.283241         -0.652187
 Vib (Bot)  9    0.491277D+00         -0.308674         -0.710748
 Vib (Bot) 10    0.438232D+00         -0.358295         -0.825006
 Vib (Bot) 11    0.430477D+00         -0.366050         -0.842861
 Vib (Bot) 12    0.390343D+00         -0.408554         -0.940730
 Vib (V=0)       0.116903D+03          2.067826          4.761346
 Vib (V=0)  1    0.350848D+01          0.545120          1.255184
 Vib (V=0)  2    0.282990D+01          0.451772          1.040243
 Vib (V=0)  3    0.191725D+01          0.282678          0.650890
 Vib (V=0)  4    0.130867D+01          0.116829          0.269009
 Vib (V=0)  5    0.129503D+01          0.112280          0.258533
 Vib (V=0)  6    0.128990D+01          0.110556          0.254565
 Vib (V=0)  7    0.124907D+01          0.096587          0.222399
 Vib (V=0)  8    0.122204D+01          0.087086          0.200522
 Vib (V=0)  9    0.120097D+01          0.079531          0.183126
 Vib (V=0) 10    0.116487D+01          0.066276          0.152607
 Vib (V=0) 11    0.115978D+01          0.064376          0.148231
 Vib (V=0) 12    0.113432D+01          0.054737          0.126037
 Electronic      0.200000D+01          0.301030          0.693147
 Translational   0.854835D+08          7.931882         18.263833
 Rotational      0.515646D+06          5.712351         13.153175
 ***** Axes restored to original set *****
 -------------------------------------------------------------------
 Center     Atomic                   Forces (Hartrees/Bohr)
 Number     Number              X              Y              Z
 -------------------------------------------------------------------
    1         14          -0.000005619    0.000054010   -0.000368915
    2         14          -0.000000451   -0.000082506    0.000000000
    3         14          -0.000003352    0.000318297    0.000000000
    4         14          -0.000041155   -0.000172482    0.000000000
    5         14           0.000056195   -0.000171328    0.000000000
    6         14          -0.000005619    0.000054010    0.000368915
 -------------------------------------------------------------------
 Cartesian Forces:  Max     0.000368915 RMS     0.000158146

 GradGradGradGradGradGradGradGradGradGradGradGradGradGradGradGradGradGrad
 Berny optimization.
 Internal  Forces:  Max     0.000235831 RMS     0.000086041
 Search for a local minimum.
 Step number   1 out of a maximum of   2
 All quantities printed in internal units (Hartrees-Bohrs-Radians)
 Second derivative matrix not updated -- analytic derivatives used.
     Eigenvalues ---    0.00692   0.00861   0.02856   0.03744   0.04293
     Eigenvalues ---    0.04682   0.06128   0.06360   0.06812   0.08158
     Eigenvalues ---    0.08168   0.095961000.000001000.000001000.00000
     Eigenvalues --- 1000.000001000.000001000.000001000.000001000.00000
     Eigenvalues --- 1000.000001000.000001000.000001000.00000
 Angle between quadratic step and forces=  11.96 degrees.
 Linear search not attempted -- first point.
 Iteration  1 RMS(Cart)=  0.00131754 RMS(Int)=  0.00000122
 Iteration  2 RMS(Cart)=  0.00000080 RMS(Int)=  0.00000041
 Variable       Old X    -DE/DX   Delta X   Delta X   Delta X     New X
                                 (Linear)    (Quad)   (Total)
    R1        4.50178   0.00003   0.00000  -0.00018  -0.00018   4.50160
    R2        4.94988   0.00001   0.00000  -0.00030  -0.00030   4.94958
    R3        4.48266  -0.00007   0.00000  -0.00189  -0.00189   4.48078
    R4        4.48256  -0.00006   0.00000  -0.00178  -0.00178   4.48078
    R5        5.40038  -0.00024   0.00000  -0.00474  -0.00474   5.39564
    R6        4.50178   0.00003   0.00000  -0.00018  -0.00018   4.50160
    R7        4.58651   0.00019   0.00000   0.00433   0.00433   4.59084
    R8        4.58636   0.00019   0.00000   0.00448   0.00447   4.59083
    R9        4.94988   0.00001   0.00000  -0.00030  -0.00030   4.94958
   R10        4.48266  -0.00007   0.00000  -0.00189  -0.00189   4.48078
   R11        4.48256  -0.00006   0.00000  -0.00178  -0.00178   4.48078
    A1        1.92134   0.00007   0.00000   0.00116   0.00116   1.92250
    A2        1.40186   0.00001   0.00000  -0.00018  -0.00018   1.40168
    A3        1.40180   0.00001   0.00000  -0.00012  -0.00012   1.40168
    A4        1.72923   0.00007   0.00000   0.00156   0.00156   1.73078
    A5        1.67694  -0.00006   0.00000  -0.00157  -0.00157   1.67537
    A6        1.92134   0.00007   0.00000   0.00116   0.00116   1.92250
    A7        1.40186   0.00001   0.00000  -0.00018  -0.00018   1.40168
    A8        1.40180   0.00001   0.00000  -0.00012  -0.00012   1.40168
    A9        1.72923   0.00007   0.00000   0.00156   0.00156   1.73078
   A10        3.14165   0.00000   0.00000  -0.00005  -0.00005   3.14159
   A11        3.14165   0.00000   0.00000  -0.00005  -0.00005   3.14159
   A12        4.36184  -0.00007   0.00000  -0.00116  -0.00116   4.36068
   A13        1.92134   0.00007   0.00000   0.00116   0.00116   1.92250
         Item               Value     Threshold  Converged?
 Maximum Force            0.000236     0.000450     YES
 RMS     Force            0.000086     0.000300     YES
 Maximum Displacement     0.002936     0.001800     NO 
 RMS     Displacement     0.001318     0.001200     NO 
 Predicted change in Energy=-1.930839D-06
 GradGradGradGradGradGradGradGradGradGradGradGradGradGradGradGradGradGrad

 1\1\GINC-NODE24\Freq\UB3LYP\6-311+G(d)\Si6(1+,2)\TAM\17-Jun-2011\0\\#N
  Geom=AllCheck Guess=Read SCRF=Check GenChk UB3LYP/6-311+G(d) Freq\\si
 5-c\\1,2\Si,-0.0000127247,-0.2447794229,1.4288789115\Si,0.0000042443,-
 2.1509177616,0.\Si,0.0000902244,1.9505258941,0.\Si,-1.8048211591,0.327
 8763709,0.\Si,1.8047697664,0.327737284,0.\Si,-0.0000127247,-0.24477942
 29,-1.4288789115\\Version=AM64L-G03RevE.01\State=2-A'\HF=-1736.7485423
 \S2=0.759901\S2-1=0.\S2A=0.750022\RMSD=1.669e-09\RMSF=1.581e-04\ZeroPo
 int=0.0080736\Thermal=0.0162842\Dipole=-0.0000465,-0.0771894,0.\Dipole
 Deriv=-0.0107956,0.0000002,-0.0000214,0.,-0.2277441,-0.0296581,-0.0000
 02,-0.1161097,0.1009722,0.1095134,0.0000231,0.,-0.0000166,0.7892188,0.
 ,0.,0.,0.2406662,0.1028745,-0.0000048,0.,0.0000295,0.4205073,0.,0.,0.0
 000001,0.1561697,0.4046437,-0.1681236,0.,-0.0781695,0.122923,0.,0.,0.,
 0.2006334,0.4045595,0.1681049,0.,0.0781567,0.1228391,0.,0.,0.,0.200586
 4,-0.0107956,0.0000002,0.0000214,0.,-0.2277441,0.0296581,0.000002,0.11
 61097,0.1009722\Polar=166.2731588,-0.0011088,186.966917,0.0000011,0.00
 00032,141.9738585\PG=CS [SG(Si4),X(Si2)]\NImag=0\\0.08022666,0.0000020
 8,0.07974866,-0.00000931,0.00232333,0.10820243,0.00119350,-0.00000008,
 0.00000021,0.00647783,0.00000005,-0.04561743,-0.02123804,0.00000130,0.
 11147197,-0.00000023,-0.03533019,-0.01874707,0.,0.,0.04010244,0.006424
 50,-0.00000135,0.00000047,-0.01234501,-0.00000129,0.,0.05382137,-0.000
 00116,-0.02214023,0.00094929,0.00000118,-0.01873077,0.,-0.00000764,0.0
 9743856,0.00000120,0.02215878,-0.00255076,0.,0.,-0.01434517,0.,0.,0.01
 500767,-0.03937637,0.00891415,-0.02187047,0.00174051,-0.00301564,0.,-0
 .02716023,-0.01485217,0.,0.13223117,0.00914555,-0.00319569,0.00944687,
 0.01038557,-0.00075168,0.,-0.03064419,-0.01720677,0.,0.00100279,0.0359
 7168,-0.03533428,0.00495865,-0.02213543,0.,0.,0.00586829,0.,0.,0.00221
 840,0.,0.,0.04614022,-0.03938585,-0.00891442,0.02187814,0.00173966,0.0
 0301553,0.,-0.02716514,0.01486095,0.,-0.02805872,0.00096474,0.,0.13225
 590,-0.00914614,-0.00319333,0.00944826,-0.01038788,-0.00075467,0.,0.03
 065582,-0.01722056,0.,-0.00096328,-0.01162186,0.,-0.00101237,0.0359837
 5,0.03534359,0.00495971,-0.02214189,0.,0.,0.00586858,0.,0.,0.00222062,
 0.,0.,-0.00995605,0.,0.,0.04615064,-0.00908245,-0.00000038,0.00000096,
 0.00119350,0.00000005,0.00000023,0.00642450,-0.00000116,-0.00000120,-0
 .03937637,0.00914555,0.03533428,-0.03938585,-0.00914614,-0.03534359,0.
 08022666,-0.00000038,-0.00560198,-0.00092972,-0.00000008,-0.04561743,0
 .03533019,-0.00000135,-0.02214023,-0.02215878,0.00891415,-0.00319569,-
 0.00495865,-0.00891442,-0.00319333,-0.00495971,0.00000208,0.07974866,-
 0.00000096,0.00092972,-0.04262728,-0.00000021,0.02123804,-0.01874707,-
 0.00000047,-0.00094929,-0.00255076,0.02187047,-0.00944688,-0.02213543,
 -0.02187814,-0.00944826,-0.02214189,0.00000931,-0.00232333,0.10820243\
 \0.00000562,-0.00005401,0.00036891,0.00000045,0.00008251,0.,0.00000335
 ,-0.00031830,0.,0.00004115,0.00017248,0.,-0.00005620,0.00017133,0.,0.0
 0000562,-0.00005401,-0.00036891\\\@


 THERE'S A SUCKER BORN EVERY MINUTE

              -- PHINEAS TAYLOR (P.T.) BARNUM
 Job cpu time:  0 days  0 hours 14 minutes 25.3 seconds.
 File lengths (MBytes):  RWF=     82 Int=      0 D2E=      0 Chk=      8 Scr=      1
 Normal termination of Gaussian 03 at Fri Jun 17 16:34:17 2011.
