 Entering Gaussian System, Link 0=g03
 Initial command:
 /usr/local/chem/g03E01/l1.exe /temp0/tam/Gau-17717.inp -scrdir=/temp0/tam/
 Entering Link 1 = /usr/local/chem/g03E01/l1.exe PID=     17718.
  
 Copyright (c) 1988,1990,1992,1993,1995,1998,2003,2004,2007, Gaussian, Inc.
                  All Rights Reserved.
  
 This is the Gaussian(R) 03 program.  It is based on the
 the Gaussian(R) 98 system (copyright 1998, Gaussian, Inc.),
 the Gaussian(R) 94 system (copyright 1995, Gaussian, Inc.),
 the Gaussian 92(TM) system (copyright 1992, Gaussian, Inc.),
 the Gaussian 90(TM) system (copyright 1990, Gaussian, Inc.),
 the Gaussian 88(TM) system (copyright 1988, Gaussian, Inc.),
 the Gaussian 86(TM) system (copyright 1986, Carnegie Mellon
 University), and the Gaussian 82(TM) system (copyright 1983,
 Carnegie Mellon University). Gaussian is a federally registered
 trademark of Gaussian, Inc.
  
 This software contains proprietary and confidential information,
 including trade secrets, belonging to Gaussian, Inc.
  
 This software is provided under written license and may be
 used, copied, transmitted, or stored only in accord with that
 written license.
  
 The following legend is applicable only to US Government
 contracts under FAR:
  
                    RESTRICTED RIGHTS LEGEND
  
 Use, reproduction and disclosure by the US Government is
 subject to restrictions as set forth in subparagraphs (a)
 and (c) of the Commercial Computer Software - Restricted
 Rights clause in FAR 52.227-19.
  
 Gaussian, Inc.
 340 Quinnipiac St., Bldg. 40, Wallingford CT 06492
  
  
 ---------------------------------------------------------------
 Warning -- This program may not be used in any manner that
 competes with the business of Gaussian, Inc. or will provide
 assistance to any competitor of Gaussian, Inc.  The licensee
 of this program is prohibited from giving any competitor of
 Gaussian, Inc. access to this program.  By using this program,
 the user acknowledges that Gaussian, Inc. is engaged in the
 business of creating and licensing software in the field of
 computational chemistry and represents and warrants to the
 licensee that it is not a competitor of Gaussian, Inc. and that
 it will not use this program in any manner prohibited above.
 ---------------------------------------------------------------
  

 Cite this work as:
 Gaussian 03, Revision E.01,
 M. J. Frisch, G. W. Trucks, H. B. Schlegel, G. E. Scuseria, 
 M. A. Robb, J. R. Cheeseman, J. A. Montgomery, Jr., T. Vreven, 
 K. N. Kudin, J. C. Burant, J. M. Millam, S. S. Iyengar, J. Tomasi, 
 V. Barone, B. Mennucci, M. Cossi, G. Scalmani, N. Rega, 
 G. A. Petersson, H. Nakatsuji, M. Hada, M. Ehara, K. Toyota, 
 R. Fukuda, J. Hasegawa, M. Ishida, T. Nakajima, Y. Honda, O. Kitao, 
 H. Nakai, M. Klene, X. Li, J. E. Knox, H. P. Hratchian, J. B. Cross, 
 V. Bakken, C. Adamo, J. Jaramillo, R. Gomperts, R. E. Stratmann, 
 O. Yazyev, A. J. Austin, R. Cammi, C. Pomelli, J. W. Ochterski, 
 P. Y. Ayala, K. Morokuma, G. A. Voth, P. Salvador, J. J. Dannenberg, 
 V. G. Zakrzewski, S. Dapprich, A. D. Daniels, M. C. Strain, 
 O. Farkas, D. K. Malick, A. D. Rabuck, K. Raghavachari, 
 J. B. Foresman, J. V. Ortiz, Q. Cui, A. G. Baboul, S. Clifford, 
 J. Cioslowski, B. B. Stefanov, G. Liu, A. Liashenko, P. Piskorz, 
 I. Komaromi, R. L. Martin, D. J. Fox, T. Keith, M. A. Al-Laham, 
 C. Y. Peng, A. Nanayakkara, M. Challacombe, P. M. W. Gill, 
 B. Johnson, W. Chen, M. W. Wong, C. Gonzalez, and J. A. Pople, 
 Gaussian, Inc., Wallingford CT, 2004.
 
 ******************************************
 Gaussian 03:  AM64L-G03RevE.01 11-Sep-2007
                 9-Nov-2010 
 ******************************************
 %NprocShared=4
 Will use up to    4 processors via shared memory.
 %mem=3750MB
 %chk=S7L-an-d-01
 ----------------------------------------------------------------------
 # b3lyp/LANL2DZ opt=(calcall,noeigentest,maxcycle=500) nosym scfcyc=50
 0 scf=xqc
 ----------------------------------------------------------------------
 1/6=500,10=4,11=1,14=-1,18=20,26=3,38=1/1,3;
 2/9=110,15=1,17=6,18=5,40=1/2;
 3/5=6,6=3,11=2,16=1,25=1,30=1,74=-5/1,2,3;
 4//1;
 5/5=2,7=500,8=3,13=1,38=5/2,8;
 8/6=4,10=90,11=11/1;
 11/6=1,8=1,9=11,15=111,16=1,31=1/1,2,10;
 10/6=1,31=1/2;
 6/7=2,8=2,9=2,10=2,18=1,28=1/1;
 7/10=1,25=1,30=1/1,2,3,16;
 1/6=500,10=4,11=1,14=-1,18=20/3(3);
 2/9=110,15=1/2;
 7/8=1,9=1,25=1,30=1,44=-1/16;
 99//99;
 2/9=110,15=1/2;
 3/5=6,6=3,11=2,16=1,25=1,30=1,74=-5/1,2,3;
 4/5=5,16=3/1;
 5/5=2,7=500,8=3,13=1,38=5/2,8;
 8/6=4,10=90,11=11/1;
 11/6=1,8=1,9=11,15=111,16=1,31=1/1,2,10;
 10/6=1,31=1/2;
 7/10=1,25=1,30=1/1,2,3,16;
 1/6=500,10=4,11=1,14=-1,18=20/3(-8);
 2/9=110,15=1/2;
 6/7=2,8=2,9=2,10=2,18=1,19=2,28=1/1;
 7/8=1,9=1,25=1,30=1,44=-1/16;
 99//99;
 -------------------------
 si7li-an-doublet-isomer01
 -------------------------
 Symbolic Z-matrix:
 Charge = -1 Multiplicity = 2
 Si                    2.02438   0.65776   0. 
 Si                    0.        2.12856   0. 
 Si                   -2.02438   0.65776   0. 
 Si                   -1.25114  -1.72204   0. 
 Si                    1.25114  -1.72204   0. 
 Si                    0.        0.       -1.4827 
 Si                    0.        0.        1.4827 
 

 GradGradGradGradGradGradGradGradGradGradGradGradGradGradGradGradGradGrad
 Berny optimization.
 Initialization pass.
                           ----------------------------
                           !    Initial Parameters    !
                           ! (Angstroms and Degrees)  !
 --------------------------                            --------------------------
 ! Name  Definition              Value          Derivative Info.                !
 --------------------------------------------------------------------------------
 ! R1    R(1,2)                  2.5023         calculate D2E/DX2 analytically  !
 ! R2    R(1,5)                  2.5023         calculate D2E/DX2 analytically  !
 ! R3    R(1,6)                  2.5941         calculate D2E/DX2 analytically  !
 ! R4    R(1,7)                  2.5941         calculate D2E/DX2 analytically  !
 ! R5    R(2,3)                  2.5023         calculate D2E/DX2 analytically  !
 ! R6    R(2,6)                  2.5941         calculate D2E/DX2 analytically  !
 ! R7    R(2,7)                  2.5941         calculate D2E/DX2 analytically  !
 ! R8    R(3,4)                  2.5023         calculate D2E/DX2 analytically  !
 ! R9    R(3,6)                  2.5941         calculate D2E/DX2 analytically  !
 ! R10   R(3,7)                  2.5941         calculate D2E/DX2 analytically  !
 ! R11   R(4,5)                  2.5023         calculate D2E/DX2 analytically  !
 ! R12   R(4,6)                  2.5941         calculate D2E/DX2 analytically  !
 ! R13   R(4,7)                  2.5941         calculate D2E/DX2 analytically  !
 ! R14   R(5,6)                  2.5941         calculate D2E/DX2 analytically  !
 ! R15   R(5,7)                  2.5941         calculate D2E/DX2 analytically  !
 ! R16   R(6,7)                  2.9654         calculate D2E/DX2 analytically  !
 ! A1    A(2,1,5)              108.0            calculate D2E/DX2 analytically  !
 ! A2    A(1,2,3)              108.0            calculate D2E/DX2 analytically  !
 ! A3    A(2,3,4)              108.0            calculate D2E/DX2 analytically  !
 ! A4    A(3,4,5)              108.0            calculate D2E/DX2 analytically  !
 ! A5    A(1,5,4)              108.0            calculate D2E/DX2 analytically  !
 ! A6    A(1,6,3)              102.5926         calculate D2E/DX2 analytically  !
 ! A7    A(1,6,4)              102.5926         calculate D2E/DX2 analytically  !
 ! A8    A(2,6,4)              102.5926         calculate D2E/DX2 analytically  !
 ! A9    A(2,6,5)              102.5926         calculate D2E/DX2 analytically  !
 ! A10   A(3,6,5)              102.5926         calculate D2E/DX2 analytically  !
 ! A11   A(1,7,3)              102.5926         calculate D2E/DX2 analytically  !
 ! A12   A(1,7,4)              102.5926         calculate D2E/DX2 analytically  !
 ! A13   A(2,7,4)              102.5926         calculate D2E/DX2 analytically  !
 ! A14   A(2,7,5)              102.5926         calculate D2E/DX2 analytically  !
 ! A15   A(3,7,5)              102.5926         calculate D2E/DX2 analytically  !
 ! D1    D(5,1,2,3)              0.0            calculate D2E/DX2 analytically  !
 ! D2    D(2,1,5,4)              0.0            calculate D2E/DX2 analytically  !
 ! D3    D(1,2,3,4)              0.0            calculate D2E/DX2 analytically  !
 ! D4    D(2,3,4,5)              0.0            calculate D2E/DX2 analytically  !
 ! D5    D(3,4,5,1)              0.0            calculate D2E/DX2 analytically  !
 --------------------------------------------------------------------------------
 Trust Radius=3.00D-01 FncErr=1.00D-07 GrdErr=1.00D-06
 Number of steps in this run= 100 maximum allowed number of steps= 100.
 GradGradGradGradGradGradGradGradGradGradGradGradGradGradGradGradGradGrad

                          Input orientation:                          
 ---------------------------------------------------------------------
 Center     Atomic     Atomic              Coordinates (Angstroms)
 Number     Number      Type              X           Y           Z
 ---------------------------------------------------------------------
    1         14             0        2.024380    0.657761    0.000000
    2         14             0        0.000000    2.128559    0.000000
    3         14             0       -2.024380    0.657761    0.000000
    4         14             0       -1.251135   -1.722040    0.000000
    5         14             0        1.251135   -1.722040    0.000000
    6         14             0        0.000000    0.000000   -1.482698
    7         14             0        0.000000    0.000000    1.482698
 ---------------------------------------------------------------------
                    Distance matrix (angstroms):
                    1          2          3          4          5
     1  Si   0.000000
     2  Si   2.502271   0.000000
     3  Si   4.048759   2.502271   0.000000
     4  Si   4.048759   4.048759   2.502271   0.000000
     5  Si   2.502271   4.048759   4.048759   2.502271   0.000000
     6  Si   2.594062   2.594062   2.594062   2.594062   2.594062
     7  Si   2.594062   2.594062   2.594062   2.594062   2.594062
                    6          7
     6  Si   0.000000
     7  Si   2.965396   0.000000
 Symmetry turned off by external request.
 Stoichiometry    Si7(1-,2)
 Framework group  D5H[C5(Si.Si),5C2(Si)]
 Deg. of freedom     2
 Full point group                 D5H
 Rotational constants (GHZ):      1.1488482      1.1488482      0.7973994
 Standard basis: LANL2DZ (5D, 7F)
 Integral buffers will be    131072 words long.
 Raffenetti 2 integral format.
 Two-electron integral symmetry is turned off.
    56 basis functions,    84 primitive gaussians,    56 cartesian basis functions
    15 alpha electrons       14 beta electrons
       nuclear repulsion energy        62.8689020879 Hartrees.
 NAtoms=    7 NActive=    7 NUniq=    7 SFac= 7.50D-01 NAtFMM=   80 NAOKFM=F Big=F
 One-electron integrals computed using PRISM.
   1 Symmetry operations used in ECPInt.
 ECPInt:  NShTT=     406 NPrTT=     917 LenC2=     407 LenP2D=     912.
 LDataN:  DoStor=F MaxTD1= 3 Len=   28
 LDataN:  DoStor=T MaxTD1= 3 Len=   28
 NBasis=    56 RedAO= T  NBF=    56
 NBsUse=    56 1.00D-06 NBFU=    56
 Harris functional with IExCor=  402 diagonalized for initial guess.
 ExpMin= 8.85D-02 ExpMax= 2.58D+00 ExpMxC= 2.58D+00 IAcc=2 IRadAn=         4 AccDes= 0.00D+00
 HarFok:  IExCor= 402 AccDes= 0.00D+00 IRadAn=         4 IDoV=1
 ScaDFX=  1.000000  1.000000  1.000000  1.000000
 <S**2> of initial guess= 0.7500
 Requested convergence on RMS density matrix=1.00D-08 within 128 cycles.
 Requested convergence on MAX density matrix=1.00D-06.
 Requested convergence on             energy=1.00D-06.
 No special actions if energy rises.
 Keep R1 and R2 integrals in memory in canonical form, NReq=     4308746.
 Integral accuracy reduced to 1.0D-05 until final iterations.
 Initial convergence to 1.0D-05 achieved.  Increase integral accuracy.
 SCF Done:  E(UB+HF-LYP) =  -27.0736834655     A.U. after   16 cycles
             Convg  =    0.8860D-08             -V/T =  3.5680
             S**2   =   0.7537
 Annihilation of the first spin contaminant:
 S**2 before annihilation     0.7537,   after     0.7500
 QCSCF skips out because SCF is already converged.
 Range of M.O.s used for correlation:     1    56
 NBasis=    56 NAE=    15 NBE=    14 NFC=     0 NFV=     0
 NROrb=     56 NOA=    15 NOB=    14 NVA=    41 NVB=    42

 **** Warning!!: The smallest alpha delta epsilon is  0.93840453D-01

   1 Symmetry operations used in ECPInt.
 ECPInt:  NShTT=     406 NPrTT=     917 LenC2=     407 LenP2D=     912.
 LDataN:  DoStor=F MaxTD1= 4 Len=   56
 LDataN:  DoStor=T MaxTD1= 4 Len=   56
 Symmetrizing basis deriv contribution to polar:
 IMax=3 JMax=2 DiffMx= 0.00D+00
 G2DrvN: will do    8 centers at a time, making    1 passes doing MaxLOS=1.
 FoFDir/FoFCou used for L=0 through L=1.
 DoAtom=TTTTTTT
          Differentiating once with respect to electric field.
                with respect to dipole field.
          Differentiating once with respect to nuclear coordinates.
          Store integrals in memory, NReq=     3350774.
          There are  24 degrees of freedom in the 1st order CPHF.
    21 vectors were produced by pass  0.
 AX will form  21 AO Fock derivatives at one time.
    21 vectors were produced by pass  1.
    21 vectors were produced by pass  2.
    21 vectors were produced by pass  3.
    21 vectors were produced by pass  4.
    21 vectors were produced by pass  5.
    21 vectors were produced by pass  6.
    20 vectors were produced by pass  7.
     3 vectors were produced by pass  8.
     3 vectors were produced by pass  9.
 Inv2:  IOpt= 1 Iter= 1 AM= 1.69D-15 Conv= 1.00D-12.
 Inverted reduced A of dimension  173 with in-core refinement.
 Isotropic polarizability for W=    0.000000      220.03 Bohr**3.
 End of Minotr Frequency-dependent properties file   721 does not exist.

 **********************************************************************

            Population analysis using the SCF density.

 **********************************************************************

 Alpha  occ. eigenvalues --   -0.55780  -0.40866  -0.40866  -0.34463  -0.24408
 Alpha  occ. eigenvalues --   -0.24408  -0.22999  -0.15111  -0.15111  -0.14141
 Alpha  occ. eigenvalues --   -0.09386  -0.09386  -0.09128  -0.09128  -0.03923
 Alpha virt. eigenvalues --    0.05461   0.05461   0.07118   0.08890   0.08890
 Alpha virt. eigenvalues --    0.12086   0.12123   0.12123   0.14714   0.14714
 Alpha virt. eigenvalues --    0.16302   0.16302   0.24337   0.41124   0.42935
 Alpha virt. eigenvalues --    0.44113   0.44114   0.45015   0.45015   0.45559
 Alpha virt. eigenvalues --    0.45559   0.46781   0.47160   0.47161   0.48894
 Alpha virt. eigenvalues --    0.48894   0.48898   0.48898   0.50655   0.53776
 Alpha virt. eigenvalues --    0.53776   0.54106   0.54106   0.59578  10.12731
 Alpha virt. eigenvalues --   10.19812  10.19812  11.71181  11.86521  11.86521
 Alpha virt. eigenvalues --   12.11845
  Beta  occ. eigenvalues --   -0.55456  -0.40561  -0.40561  -0.33465  -0.24127
  Beta  occ. eigenvalues --   -0.24127  -0.22316  -0.14484  -0.14484  -0.11044
  Beta  occ. eigenvalues --   -0.09234  -0.09234  -0.08973  -0.08973
  Beta virt. eigenvalues --    0.02020   0.06034   0.06034   0.07878   0.09290
  Beta virt. eigenvalues --    0.09290   0.12220   0.12220   0.12494   0.15001
  Beta virt. eigenvalues --    0.15001   0.17204   0.17204   0.24442   0.42823
  Beta virt. eigenvalues --    0.43071   0.44159   0.44159   0.45312   0.45312
  Beta virt. eigenvalues --    0.45653   0.45653   0.47186   0.47186   0.48603
  Beta virt. eigenvalues --    0.49115   0.49116   0.49225   0.49225   0.51335
  Beta virt. eigenvalues --    0.54173   0.54173   0.54191   0.54191   0.59638
  Beta virt. eigenvalues --   10.12816  10.19779  10.19779  11.71246  11.86653
  Beta virt. eigenvalues --   11.86653  12.11670
          Condensed to atoms (all electrons):
              1          2          3          4          5          6
     1  Si   3.996578   0.085722  -0.062205  -0.062205   0.085719   0.027141
     2  Si   0.085722   3.996584   0.085722  -0.062205  -0.062205   0.027134
     3  Si  -0.062205   0.085722   3.996578   0.085719  -0.062205   0.027141
     4  Si  -0.062205  -0.062205   0.085719   3.996575   0.085722   0.027140
     5  Si   0.085719  -0.062205  -0.062205   0.085722   3.996575   0.027140
     6  Si   0.027141   0.027134   0.027141   0.027140   0.027140   4.260459
     7  Si   0.027141   0.027134   0.027141   0.027140   0.027140  -0.140874
              7
     1  Si   0.027141
     2  Si   0.027134
     3  Si   0.027141
     4  Si   0.027140
     5  Si   0.027140
     6  Si  -0.140874
     7  Si   4.260459
 Mulliken atomic charges:
              1
     1  Si  -0.097890
     2  Si  -0.097886
     3  Si  -0.097890
     4  Si  -0.097887
     5  Si  -0.097887
     6  Si  -0.255281
     7  Si  -0.255281
 Sum of Mulliken charges=  -1.00000
 Atomic charges with hydrogens summed into heavy atoms:
              1
     1  Si  -0.097890
     2  Si  -0.097886
     3  Si  -0.097890
     4  Si  -0.097887
     5  Si  -0.097887
     6  Si  -0.255281
     7  Si  -0.255281
 Sum of Mulliken charges=  -1.00000
          Atomic-Atomic Spin Densities.
              1          2          3          4          5          6
     1  Si   0.069899   0.008013   0.003477   0.003477   0.008013  -0.018825
     2  Si   0.008013   0.069898   0.008013   0.003477   0.003477  -0.018825
     3  Si   0.003477   0.008013   0.069899   0.008013   0.003477  -0.018825
     4  Si   0.003477   0.003477   0.008013   0.069896   0.008013  -0.018824
     5  Si   0.008013   0.003477   0.003477   0.008013   0.069896  -0.018824
     6  Si  -0.018825  -0.018825  -0.018825  -0.018824  -0.018824   0.479722
     7  Si  -0.018825  -0.018825  -0.018825  -0.018824  -0.018824  -0.023668
              7
     1  Si  -0.018825
     2  Si  -0.018825
     3  Si  -0.018825
     4  Si  -0.018824
     5  Si  -0.018824
     6  Si  -0.023668
     7  Si   0.479722
 Mulliken atomic spin densities:
              1
     1  Si   0.055228
     2  Si   0.055228
     3  Si   0.055228
     4  Si   0.055227
     5  Si   0.055227
     6  Si   0.361930
     7  Si   0.361930
 Sum of Mulliken spin densities=   1.00000
 APT atomic charges:
              1
     1  Si  -0.110198
     2  Si  -0.110172
     3  Si  -0.110198
     4  Si  -0.110167
     5  Si  -0.110167
     6  Si  -0.224549
     7  Si  -0.224549
 Sum of APT charges=  -1.00000
 APT Atomic charges with hydrogens summed into heavy atoms:
              1
     1  Si  -0.110198
     2  Si  -0.110172
     3  Si  -0.110198
     4  Si  -0.110167
     5  Si  -0.110167
     6  Si  -0.224549
     7  Si  -0.224549
 Sum of APT charges=  -1.00000
 Electronic spatial extent (au):  <R**2>=   627.0872
 Charge=    -1.0000 electrons
 Dipole moment (field-independent basis, Debye):
    X=     0.0000    Y=    -0.0001    Z=     0.0000  Tot=     0.0001
 Quadrupole moment (field-independent basis, Debye-Ang):
   XX=  -111.8537   YY=  -111.8535   ZZ=  -100.0284
   XY=     0.0000   XZ=     0.0000   YZ=     0.0000
 Traceless Quadrupole moment (field-independent basis, Debye-Ang):
   XX=    -3.9418   YY=    -3.9416   ZZ=     7.8834
   XY=     0.0000   XZ=     0.0000   YZ=     0.0000
 Octapole moment (field-independent basis, Debye-Ang**2):
  XXX=     0.0000  YYY=    -0.0007  ZZZ=     0.0000  XYY=     0.0000
  XXY=    -0.0002  XXZ=     0.0000  XZZ=     0.0000  YZZ=    -0.0007
  YYZ=     0.0000  XYZ=     0.0000
 Hexadecapole moment (field-independent basis, Debye-Ang**3):
 XXXX= -1265.5313 YYYY= -1265.5285 ZZZZ=  -632.7838 XXXY=     0.0000
 XXXZ=     0.0000 YYYX=     0.0000 YYYZ=     0.0000 ZZZX=     0.0000
 ZZZY=     0.0000 XXYY=  -421.8428 XXZZ=  -260.1102 YYZZ=  -260.1098
 XXYZ=     0.0000 YYXZ=     0.0000 ZZXY=     0.0000
 N-N= 6.286890208787D+01 E-N=-1.792632534043D+02  KE= 1.054284897605D+01
  Exact polarizability: 241.872   0.000 241.874   0.000   0.000 176.338
 Approx polarizability: 725.415   0.000 725.416   0.000   0.000 507.426
                          Isotropic Fermi Contact Couplings
        Atom                 a.u.       MegaHertz       Gauss      10(-4) cm-1
     1  Si(29)             0.00000       0.00018       0.00006       0.00006
     2  Si(29)             0.00000       0.00018       0.00006       0.00006
     3  Si(29)             0.00000       0.00018       0.00006       0.00006
     4  Si(29)             0.00000       0.00018       0.00006       0.00006
     5  Si(29)             0.00000       0.00018       0.00006       0.00006
     6  Si(29)             0.00000      -0.00105      -0.00037      -0.00035
     7  Si(29)             0.00000      -0.00105      -0.00037      -0.00035
 --------------------------------------------------------
       Center         ----  Spin Dipole Couplings  ----
                      3XX-RR        3YY-RR        3ZZ-RR
 --------------------------------------------------------
     1   Atom       -0.004726     -0.006594      0.011320
     2   Atom       -0.006815     -0.004506      0.011320
     3   Atom       -0.004726     -0.006594      0.011320
     4   Atom       -0.006017     -0.005303      0.011320
     5   Atom       -0.006017     -0.005303      0.011320
     6   Atom       -0.019715     -0.019715      0.039431
     7   Atom       -0.019715     -0.019715      0.039431
 --------------------------------------------------------
                        XY            XZ            YZ
 --------------------------------------------------------
     1   Atom        0.000679      0.000000      0.000000
     2   Atom        0.000000      0.000000      0.000000
     3   Atom       -0.000679      0.000000      0.000000
     4   Atom        0.001098      0.000000      0.000000
     5   Atom       -0.001098      0.000000      0.000000
     6   Atom        0.000000      0.000000      0.000001
     7   Atom        0.000000      0.000000     -0.000001
 --------------------------------------------------------


 ---------------------------------------------------------------------------------
              Anisotropic Spin Dipole Couplings in Principal Axis System
 ---------------------------------------------------------------------------------

       Atom             a.u.   MegaHertz   Gauss  10(-4) cm-1        Axes

              Baa    -0.0068     0.723     0.258     0.241 -0.3090  0.9511  0.0000
     1 Si(29) Bbb    -0.0045     0.478     0.171     0.159  0.9511  0.3090  0.0000
              Bcc     0.0113    -1.201    -0.429    -0.401  0.0000  0.0000  1.0000
 
              Baa    -0.0068     0.723     0.258     0.241  1.0000  0.0000  0.0000
     2 Si(29) Bbb    -0.0045     0.478     0.171     0.159  0.0000  1.0000  0.0000
              Bcc     0.0113    -1.201    -0.429    -0.401  0.0000  0.0000  1.0000
 
              Baa    -0.0068     0.723     0.258     0.241  0.3090  0.9511  0.0000
     3 Si(29) Bbb    -0.0045     0.478     0.171     0.159  0.9511 -0.3090  0.0000
              Bcc     0.0113    -1.201    -0.429    -0.401  0.0000  0.0000  1.0000
 
              Baa    -0.0068     0.723     0.258     0.241  0.8090 -0.5878  0.0000
     4 Si(29) Bbb    -0.0045     0.478     0.171     0.159  0.5878  0.8090  0.0000
              Bcc     0.0113    -1.201    -0.429    -0.401  0.0000  0.0000  1.0000
 
              Baa    -0.0068     0.723     0.258     0.241  0.8090  0.5878  0.0000
     5 Si(29) Bbb    -0.0045     0.478     0.171     0.159 -0.5878  0.8090  0.0000
              Bcc     0.0113    -1.201    -0.429    -0.401  0.0000  0.0000  1.0000
 
              Baa    -0.0197     2.091     0.746     0.698  1.0000  0.0000  0.0000
     6 Si(29) Bbb    -0.0197     2.091     0.746     0.698  0.0000  1.0000  0.0000
              Bcc     0.0394    -4.183    -1.493    -1.395  0.0000  0.0000  1.0000
 
              Baa    -0.0197     2.091     0.746     0.698  1.0000  0.0000  0.0000
     7 Si(29) Bbb    -0.0197     2.091     0.746     0.698  0.0000  1.0000  0.0000
              Bcc     0.0394    -4.183    -1.493    -1.395  0.0000  0.0000  1.0000
 

 ---------------------------------------------------------------------------------

   1 Symmetry operations used in ECPInt.
 ECPInt:  NShTT=     406 NPrTT=     917 LenC2=     407 LenP2D=     917.
 LDataN:  DoStor=F MaxTD1= 5 Len=  102
 LDataN:  DoStor=T MaxTD1= 5 Len=  102
 -------------------------------------------------------------------
 Center     Atomic                   Forces (Hartrees/Bohr)
 Number     Number              X              Y              Z
 -------------------------------------------------------------------
    1         14           0.014559404    0.004734893    0.000000000
    2         14           0.000000000    0.015294552    0.000000000
    3         14          -0.014559404    0.004734893    0.000000000
    4         14          -0.009008559   -0.012395324    0.000000000
    5         14           0.009008559   -0.012395324    0.000000000
    6         14           0.000000000    0.000013154   -0.031631055
    7         14           0.000000000    0.000013154    0.031631055
 -------------------------------------------------------------------
 Cartesian Forces:  Max     0.031631055 RMS     0.012292774

 GradGradGradGradGradGradGradGradGradGradGradGradGradGradGradGradGradGrad
 Berny optimization.
 Internal  Forces:  Max     0.011832104 RMS     0.004279153
 Search for a local minimum.
 Step number   1 out of a maximum of 100
 All quantities printed in internal units (Hartrees-Bohrs-Radians)
 Second derivative matrix not updated -- analytic derivatives used.
     Eigenvalues ---    0.01643   0.01646   0.02001   0.02690   0.02691
     Eigenvalues ---    0.03007   0.03146   0.03147   0.03983   0.03983
     Eigenvalues ---    0.04314   0.04315   0.04703   0.05217   0.05226
     Eigenvalues --- 1000.000001000.000001000.000001000.000001000.00000
     Eigenvalues --- 1000.000001000.000001000.000001000.000001000.00000
     Eigenvalues --- 1000.000001000.000001000.000001000.000001000.00000
     Eigenvalues --- 1000.000001000.000001000.000001000.000001000.00000
     Eigenvalues --- 1000.00000
 RFO step:  Lambda=-1.42566072D-02.
 Linear search not attempted -- first point.
 Maximum step size (   0.300) exceeded in Quadratic search.
    -- Step size scaled by   0.537
 Iteration  1 RMS(Cart)=  0.02265056 RMS(Int)=  0.00013548
 Iteration  2 RMS(Cart)=  0.00004528 RMS(Int)=  0.00011955
 Iteration  3 RMS(Cart)=  0.00000000 RMS(Int)=  0.00011955
 Variable       Old X    -DE/DX   Delta X   Delta X   Delta X     New X
                                 (Linear)    (Quad)   (Total)
    R1        4.72861   0.00437   0.00000   0.04178   0.04161   4.77022
    R2        4.72861   0.00438   0.00000   0.04186   0.04169   4.77029
    R3        4.90207   0.00643   0.00000   0.07380   0.07388   4.97594
    R4        4.90207   0.00643   0.00000   0.07380   0.07388   4.97594
    R5        4.72861   0.00437   0.00000   0.04178   0.04161   4.77022
    R6        4.90207   0.00643   0.00000   0.07374   0.07381   4.97588
    R7        4.90207   0.00643   0.00000   0.07374   0.07381   4.97588
    R8        4.72861   0.00438   0.00000   0.04186   0.04169   4.77029
    R9        4.90207   0.00643   0.00000   0.07380   0.07388   4.97594
   R10        4.90207   0.00643   0.00000   0.07380   0.07388   4.97594
   R11        4.72861   0.00438   0.00000   0.04188   0.04171   4.77032
   R12        4.90207   0.00644   0.00000   0.07386   0.07394   4.97601
   R13        4.90207   0.00644   0.00000   0.07386   0.07394   4.97601
   R14        4.90207   0.00644   0.00000   0.07386   0.07394   4.97601
   R15        4.90207   0.00644   0.00000   0.07386   0.07394   4.97601
   R16        5.60379   0.01183   0.00000   0.15610   0.15612   5.75991
    A1        1.88496   0.00000   0.00000   0.00000   0.00000   1.88495
    A2        1.88496   0.00000   0.00000   0.00002   0.00002   1.88498
    A3        1.88496   0.00000   0.00000   0.00000   0.00000   1.88495
    A4        1.88496   0.00000   0.00000  -0.00001  -0.00001   1.88495
    A5        1.88496   0.00000   0.00000  -0.00001  -0.00001   1.88495
    A6        1.79058  -0.00097   0.00000  -0.01550  -0.01533   1.77525
    A7        1.79058  -0.00097   0.00000  -0.01550  -0.01533   1.77525
    A8        1.79058  -0.00097   0.00000  -0.01550  -0.01533   1.77525
    A9        1.79058  -0.00097   0.00000  -0.01550  -0.01533   1.77525
   A10        1.79058  -0.00097   0.00000  -0.01550  -0.01533   1.77525
   A11        1.79058  -0.00097   0.00000  -0.01550  -0.01533   1.77525
   A12        1.79058  -0.00097   0.00000  -0.01550  -0.01533   1.77525
   A13        1.79058  -0.00097   0.00000  -0.01550  -0.01533   1.77525
   A14        1.79058  -0.00097   0.00000  -0.01550  -0.01533   1.77525
   A15        1.79058  -0.00097   0.00000  -0.01550  -0.01533   1.77525
    D1        0.00000   0.00000   0.00000   0.00000   0.00000   0.00000
    D2        0.00000   0.00000   0.00000   0.00000   0.00000   0.00000
    D3        0.00000   0.00000   0.00000   0.00000   0.00000   0.00000
    D4        0.00000   0.00000   0.00000   0.00000   0.00000   0.00000
    D5        0.00000   0.00000   0.00000   0.00000   0.00000   0.00000
         Item               Value     Threshold  Converged?
 Maximum Force            0.011832     0.000450     NO 
 RMS     Force            0.004279     0.000300     NO 
 Maximum Displacement     0.078062     0.001800     NO 
 RMS     Displacement     0.022649     0.001200     NO 
 Predicted change in Energy=-6.244585D-03
 GradGradGradGradGradGradGradGradGradGradGradGradGradGradGradGradGradGrad

                          Input orientation:                          
 ---------------------------------------------------------------------
 Center     Atomic     Atomic              Coordinates (Angstroms)
 Number     Number      Type              X           Y           Z
 ---------------------------------------------------------------------
    1         14             0        2.042209    0.663564    0.000000
    2         14             0        0.000000    2.147282    0.000000
    3         14             0       -2.042209    0.663564    0.000000
    4         14             0       -1.262171   -1.737224    0.000000
    5         14             0        1.262171   -1.737224    0.000000
    6         14             0        0.000000    0.000019   -1.524007
    7         14             0        0.000000    0.000019    1.524007
 ---------------------------------------------------------------------
                    Distance matrix (angstroms):
                    1          2          3          4          5
     1  Si   0.000000
     2  Si   2.524289   0.000000
     3  Si   4.084417   2.524289   0.000000
     4  Si   4.084448   4.084418   2.524330   0.000000
     5  Si   2.524330   4.084418   4.084448   2.524342   0.000000
     6  Si   2.633155   2.633123   2.633155   2.633190   2.633190
     7  Si   2.633155   2.633123   2.633155   2.633190   2.633190
                    6          7
     6  Si   0.000000
     7  Si   3.048013   0.000000
 Symmetry turned off by external request.
 Stoichiometry    Si7(1-,2)
 Framework group  CS[SG(Si5),X(Si2)]
 Deg. of freedom    10
 Full point group                 CS
 Rotational constants (GHZ):      1.1169630      1.1169608      0.7835324
 Standard basis: LANL2DZ (5D, 7F)
 Integral buffers will be    131072 words long.
 Raffenetti 2 integral format.
 Two-electron integral symmetry is turned off.
    56 basis functions,    84 primitive gaussians,    56 cartesian basis functions
    15 alpha electrons       14 beta electrons
       nuclear repulsion energy        62.0677710636 Hartrees.
 NAtoms=    7 NActive=    7 NUniq=    7 SFac= 7.50D-01 NAtFMM=   80 NAOKFM=F Big=F
 One-electron integrals computed using PRISM.
   1 Symmetry operations used in ECPInt.
 ECPInt:  NShTT=     406 NPrTT=     917 LenC2=     407 LenP2D=     902.
 LDataN:  DoStor=F MaxTD1= 3 Len=   28
 LDataN:  DoStor=T MaxTD1= 3 Len=   28
 NBasis=    56 RedAO= T  NBF=    56
 NBsUse=    56 1.00D-06 NBFU=    56
 Initial guess read from the read-write file:
 <S**2> of initial guess= 0.7538
 Harris functional with IExCor=  402 diagonalized for initial guess.
 ExpMin= 8.85D-02 ExpMax= 2.58D+00 ExpMxC= 2.58D+00 IAcc=2 IRadAn=         4 AccDes= 0.00D+00
 HarFok:  IExCor= 402 AccDes= 0.00D+00 IRadAn=         4 IDoV=1
 ScaDFX=  1.000000  1.000000  1.000000  1.000000
 Requested convergence on RMS density matrix=1.00D-08 within 128 cycles.
 Requested convergence on MAX density matrix=1.00D-06.
 Requested convergence on             energy=1.00D-06.
 No special actions if energy rises.
 Keep R1 and R2 integrals in memory in canonical form, NReq=     4308760.
 Integral accuracy reduced to 1.0D-05 until final iterations.
 Initial convergence to 1.0D-05 achieved.  Increase integral accuracy.
 SCF Done:  E(UB+HF-LYP) =  -27.0799759836     A.U. after   15 cycles
             Convg  =    0.2798D-08             -V/T =  3.5950
             S**2   =   0.7542
 Annihilation of the first spin contaminant:
 S**2 before annihilation     0.7542,   after     0.7500
 QCSCF skips out because SCF is already converged.
 Range of M.O.s used for correlation:     1    56
 NBasis=    56 NAE=    15 NBE=    14 NFC=     0 NFV=     0
 NROrb=     56 NOA=    15 NOB=    14 NVA=    41 NVB=    42

 **** Warning!!: The smallest alpha delta epsilon is  0.98222574D-01

   1 Symmetry operations used in ECPInt.
 ECPInt:  NShTT=     406 NPrTT=     917 LenC2=     407 LenP2D=     902.
 LDataN:  DoStor=F MaxTD1= 4 Len=   56
 LDataN:  DoStor=T MaxTD1= 4 Len=   56
 Symmetrizing basis deriv contribution to polar:
 IMax=3 JMax=2 DiffMx= 0.00D+00
 G2DrvN: will do    8 centers at a time, making    1 passes doing MaxLOS=1.
 FoFDir/FoFCou used for L=0 through L=1.
 DoAtom=TTTTTTT
          Differentiating once with respect to electric field.
                with respect to dipole field.
          Differentiating once with respect to nuclear coordinates.
          Store integrals in memory, NReq=     3350774.
          There are  24 degrees of freedom in the 1st order CPHF.
    21 vectors were produced by pass  0.
 AX will form  21 AO Fock derivatives at one time.
    21 vectors were produced by pass  1.
    21 vectors were produced by pass  2.
    21 vectors were produced by pass  3.
    21 vectors were produced by pass  4.
    21 vectors were produced by pass  5.
    21 vectors were produced by pass  6.
    20 vectors were produced by pass  7.
     3 vectors were produced by pass  8.
     3 vectors were produced by pass  9.
 Inv2:  IOpt= 1 Iter= 1 AM= 1.58D-15 Conv= 1.00D-12.
 Inverted reduced A of dimension  173 with in-core refinement.
 Isotropic polarizability for W=    0.000000      223.72 Bohr**3.
 End of Minotr Frequency-dependent properties file   721 does not exist.
   1 Symmetry operations used in ECPInt.
 ECPInt:  NShTT=     406 NPrTT=     917 LenC2=     407 LenP2D=     917.
 LDataN:  DoStor=F MaxTD1= 5 Len=  102
 LDataN:  DoStor=T MaxTD1= 5 Len=  102
 -------------------------------------------------------------------
 Center     Atomic                   Forces (Hartrees/Bohr)
 Number     Number              X              Y              Z
 -------------------------------------------------------------------
    1         14           0.009216200    0.002997256    0.000000000
    2         14           0.000000000    0.009681250    0.000000000
    3         14          -0.009216200    0.002997256    0.000000000
    4         14          -0.005703038   -0.007846965    0.000000000
    5         14           0.005703038   -0.007846965    0.000000000
    6         14           0.000000000    0.000009083   -0.020872346
    7         14           0.000000000    0.000009083    0.020872346
 -------------------------------------------------------------------
 Cartesian Forces:  Max     0.020872346 RMS     0.007991302

 GradGradGradGradGradGradGradGradGradGradGradGradGradGradGradGradGradGrad
 Berny optimization.
 Internal  Forces:  Max     0.007891616 RMS     0.002769711
 Search for a local minimum.
 Step number   2 out of a maximum of 100
 All quantities printed in internal units (Hartrees-Bohrs-Radians)
 Second derivative matrix not updated -- analytic derivatives used.
 Trust test= 1.01D+00 RLast= 3.00D-01 DXMaxT set to 4.24D-01
 Maximum step size (   0.424) exceeded in linear search.
    -- Step size scaled by   0.707
 Quintic linear search produced a step of  1.41423.
 Iteration  1 RMS(Cart)=  0.03121034 RMS(Int)=  0.00273534
 Iteration  2 RMS(Cart)=  0.00162582 RMS(Int)=  0.00039832
 Iteration  3 RMS(Cart)=  0.00000078 RMS(Int)=  0.00039832
 Variable       Old X    -DE/DX   Delta X   Delta X   Delta X     New X
                                 (Linear)    (Quad)   (Total)
    R1        4.77022   0.00270   0.05884   0.00000   0.05828   4.82850
    R2        4.77029   0.00270   0.05895   0.00000   0.05839   4.82869
    R3        4.97594   0.00416   0.10448   0.00000   0.10474   5.08068
    R4        4.97594   0.00416   0.10448   0.00000   0.10474   5.08068
    R5        4.77022   0.00270   0.05884   0.00000   0.05828   4.82850
    R6        4.97588   0.00415   0.10439   0.00000   0.10465   5.08053
    R7        4.97588   0.00415   0.10439   0.00000   0.10465   5.08053
    R8        4.77029   0.00270   0.05895   0.00000   0.05839   4.82869
    R9        4.97594   0.00416   0.10448   0.00000   0.10474   5.08068
   R10        4.97594   0.00416   0.10448   0.00000   0.10474   5.08068
   R11        4.77032   0.00271   0.05899   0.00000   0.05842   4.82874
   R12        4.97601   0.00416   0.10457   0.00000   0.10483   5.08084
   R13        4.97601   0.00416   0.10457   0.00000   0.10483   5.08084
   R14        4.97601   0.00416   0.10457   0.00000   0.10483   5.08084
   R15        4.97601   0.00416   0.10457   0.00000   0.10483   5.08084
   R16        5.75991   0.00789   0.22079   0.00000   0.22084   5.98075
    A1        1.88495   0.00000   0.00000   0.00000   0.00000   1.88495
    A2        1.88498   0.00000   0.00003   0.00000   0.00003   1.88501
    A3        1.88495   0.00000   0.00000   0.00000   0.00000   1.88495
    A4        1.88495   0.00000  -0.00001   0.00000  -0.00001   1.88493
    A5        1.88495   0.00000  -0.00001   0.00000  -0.00001   1.88493
    A6        1.77525  -0.00066  -0.02168   0.00000  -0.02109   1.75416
    A7        1.77525  -0.00066  -0.02167   0.00000  -0.02109   1.75416
    A8        1.77525  -0.00066  -0.02168   0.00000  -0.02109   1.75416
    A9        1.77525  -0.00066  -0.02168   0.00000  -0.02109   1.75416
   A10        1.77525  -0.00066  -0.02167   0.00000  -0.02109   1.75416
   A11        1.77525  -0.00066  -0.02168   0.00000  -0.02109   1.75416
   A12        1.77525  -0.00066  -0.02167   0.00000  -0.02109   1.75416
   A13        1.77525  -0.00066  -0.02168   0.00000  -0.02109   1.75416
   A14        1.77525  -0.00066  -0.02168   0.00000  -0.02109   1.75416
   A15        1.77525  -0.00066  -0.02167   0.00000  -0.02109   1.75416
    D1        0.00000   0.00000   0.00000   0.00000   0.00000   0.00000
    D2        0.00000   0.00000   0.00000   0.00000   0.00000   0.00000
    D3        0.00000   0.00000   0.00000   0.00000   0.00000   0.00000
    D4        0.00000   0.00000   0.00000   0.00000   0.00000   0.00000
    D5        0.00000   0.00000   0.00000   0.00000   0.00000   0.00000
         Item               Value     Threshold  Converged?
 Maximum Force            0.007892     0.000450     NO 
 RMS     Force            0.002770     0.000300     NO 
 Maximum Displacement     0.110420     0.001800     NO 
 RMS     Displacement     0.031931     0.001200     NO 
 Predicted change in Energy=-4.472900D-03
 GradGradGradGradGradGradGradGradGradGradGradGradGradGradGradGradGradGrad

                          Input orientation:                          
 ---------------------------------------------------------------------
 Center     Atomic     Atomic              Coordinates (Angstroms)
 Number     Number      Type              X           Y           Z
 ---------------------------------------------------------------------
    1         14             0        2.067182    0.671693    0.000000
    2         14             0        0.000000    2.173508    0.000000
    3         14             0       -2.067182    0.671693    0.000000
    4         14             0       -1.277629   -1.758494    0.000000
    5         14             0        1.277629   -1.758494    0.000000
    6         14             0        0.000000    0.000047   -1.582438
    7         14             0        0.000000    0.000047    1.582438
 ---------------------------------------------------------------------
                    Distance matrix (angstroms):
                    1          2          3          4          5
     1  Si   0.000000
     2  Si   2.555131   0.000000
     3  Si   4.134365   2.555131   0.000000
     4  Si   4.134437   4.134365   2.555230   0.000000
     5  Si   2.555230   4.134365   4.134437   2.555259   0.000000
     6  Si   2.688580   2.688502   2.688580   2.688664   2.688664
     7  Si   2.688580   2.688502   2.688580   2.688664   2.688664
                    6          7
     6  Si   0.000000
     7  Si   3.164877   0.000000
 Symmetry turned off by external request.
 Stoichiometry    Si7(1-,2)
 Framework group  CS[SG(Si5),X(Si2)]
 Deg. of freedom    10
 Full point group                 CS
 Rotational constants (GHZ):      1.0740120      1.0740070      0.7647088
 Standard basis: LANL2DZ (5D, 7F)
 Integral buffers will be    131072 words long.
 Raffenetti 2 integral format.
 Two-electron integral symmetry is turned off.
    56 basis functions,    84 primitive gaussians,    56 cartesian basis functions
    15 alpha electrons       14 beta electrons
       nuclear repulsion energy        60.9742764293 Hartrees.
 NAtoms=    7 NActive=    7 NUniq=    7 SFac= 7.50D-01 NAtFMM=   80 NAOKFM=F Big=F
 One-electron integrals computed using PRISM.
   1 Symmetry operations used in ECPInt.
 ECPInt:  NShTT=     406 NPrTT=     917 LenC2=     407 LenP2D=     902.
 LDataN:  DoStor=F MaxTD1= 3 Len=   28
 LDataN:  DoStor=T MaxTD1= 3 Len=   28
 NBasis=    56 RedAO= T  NBF=    56
 NBsUse=    56 1.00D-06 NBFU=    56
 Initial guess read from the read-write file:
 <S**2> of initial guess= 0.7543
 Harris functional with IExCor=  402 diagonalized for initial guess.
 ExpMin= 8.85D-02 ExpMax= 2.58D+00 ExpMxC= 2.58D+00 IAcc=2 IRadAn=         4 AccDes= 0.00D+00
 HarFok:  IExCor= 402 AccDes= 0.00D+00 IRadAn=         4 IDoV=1
 ScaDFX=  1.000000  1.000000  1.000000  1.000000
 Requested convergence on RMS density matrix=1.00D-08 within 128 cycles.
 Requested convergence on MAX density matrix=1.00D-06.
 Requested convergence on             energy=1.00D-06.
 No special actions if energy rises.
 Keep R1 and R2 integrals in memory in canonical form, NReq=     4308760.
 Integral accuracy reduced to 1.0D-05 until final iterations.
 Initial convergence to 1.0D-05 achieved.  Increase integral accuracy.
 SCF Done:  E(UB+HF-LYP) =  -27.0845688373     A.U. after   15 cycles
             Convg  =    0.5736D-08             -V/T =  3.6312
             S**2   =   0.7549
 Annihilation of the first spin contaminant:
 S**2 before annihilation     0.7549,   after     0.7500
 QCSCF skips out because SCF is already converged.
 Range of M.O.s used for correlation:     1    56
 NBasis=    56 NAE=    15 NBE=    14 NFC=     0 NFV=     0
 NROrb=     56 NOA=    15 NOB=    14 NVA=    41 NVB=    42

 **** Warning!!: The smallest beta delta epsilon is  0.95445844D-01

   1 Symmetry operations used in ECPInt.
 ECPInt:  NShTT=     406 NPrTT=     917 LenC2=     407 LenP2D=     902.
 LDataN:  DoStor=F MaxTD1= 4 Len=   56
 LDataN:  DoStor=T MaxTD1= 4 Len=   56
 Symmetrizing basis deriv contribution to polar:
 IMax=3 JMax=2 DiffMx= 0.00D+00
 G2DrvN: will do    8 centers at a time, making    1 passes doing MaxLOS=1.
 FoFDir/FoFCou used for L=0 through L=1.
 DoAtom=TTTTTTT
          Differentiating once with respect to electric field.
                with respect to dipole field.
          Differentiating once with respect to nuclear coordinates.
          Store integrals in memory, NReq=     3350774.
          There are  24 degrees of freedom in the 1st order CPHF.
    21 vectors were produced by pass  0.
 AX will form  21 AO Fock derivatives at one time.
    21 vectors were produced by pass  1.
    21 vectors were produced by pass  2.
    21 vectors were produced by pass  3.
    21 vectors were produced by pass  4.
    21 vectors were produced by pass  5.
    21 vectors were produced by pass  6.
    20 vectors were produced by pass  7.
     5 vectors were produced by pass  8.
     3 vectors were produced by pass  9.
 Inv2:  IOpt= 1 Iter= 1 AM= 1.61D-15 Conv= 1.00D-12.
 Inverted reduced A of dimension  175 with in-core refinement.
 Isotropic polarizability for W=    0.000000      228.94 Bohr**3.
 End of Minotr Frequency-dependent properties file   721 does not exist.
   1 Symmetry operations used in ECPInt.
 ECPInt:  NShTT=     406 NPrTT=     917 LenC2=     407 LenP2D=     917.
 LDataN:  DoStor=F MaxTD1= 5 Len=  102
 LDataN:  DoStor=T MaxTD1= 5 Len=  102
 -------------------------------------------------------------------
 Center     Atomic                   Forces (Hartrees/Bohr)
 Number     Number              X              Y              Z
 -------------------------------------------------------------------
    1         14           0.002618272    0.000850816    0.000000000
    2         14           0.000000000    0.002749004    0.000000000
    3         14          -0.002618272    0.000850816    0.000000000
    4         14          -0.001621359   -0.002230988    0.000000000
    5         14           0.001621359   -0.002230988    0.000000000
    6         14           0.000000000    0.000005670   -0.007214653
    7         14           0.000000000    0.000005670    0.007214652
 -------------------------------------------------------------------
 Cartesian Forces:  Max     0.007214653 RMS     0.002600643

 GradGradGradGradGradGradGradGradGradGradGradGradGradGradGradGradGradGrad
 Berny optimization.
 Internal  Forces:  Max     0.002944025 RMS     0.000894294
 Search for a local minimum.
 Step number   3 out of a maximum of 100
 All quantities printed in internal units (Hartrees-Bohrs-Radians)
 Second derivative matrix not updated -- analytic derivatives used.
     Eigenvalues ---    0.01345   0.01346   0.01413   0.01838   0.01845
     Eigenvalues ---    0.02385   0.02437   0.02439   0.02844   0.02846
     Eigenvalues ---    0.03565   0.03566   0.04319   0.04562   0.04568
     Eigenvalues --- 1000.000001000.000001000.000001000.000001000.00000
     Eigenvalues --- 1000.000001000.000001000.000001000.000001000.00000
     Eigenvalues --- 1000.000001000.000001000.000001000.000001000.00000
     Eigenvalues --- 1000.000001000.000001000.000001000.000001000.00000
     Eigenvalues --- 1000.00000
 RFO step:  Lambda=-3.08298479D-05.
 Quintic linear search produced a step of  0.53534.
 Iteration  1 RMS(Cart)=  0.01750676 RMS(Int)=  0.00021976
 Iteration  2 RMS(Cart)=  0.00003798 RMS(Int)=  0.00021325
 Iteration  3 RMS(Cart)=  0.00000000 RMS(Int)=  0.00021325
 Variable       Old X    -DE/DX   Delta X   Delta X   Delta X     New X
                                 (Linear)    (Quad)   (Total)
    R1        4.82850   0.00064   0.03120  -0.00795   0.02294   4.85144
    R2        4.82869   0.00064   0.03126  -0.00801   0.02294   4.85162
    R3        5.08068   0.00131   0.05607  -0.00054   0.05568   5.13636
    R4        5.08068   0.00131   0.05607  -0.00054   0.05568   5.13636
    R5        4.82850   0.00064   0.03120  -0.00795   0.02294   4.85144
    R6        5.08053   0.00131   0.05602  -0.00062   0.05555   5.13609
    R7        5.08053   0.00131   0.05602  -0.00062   0.05555   5.13609
    R8        4.82869   0.00064   0.03126  -0.00801   0.02294   4.85162
    R9        5.08068   0.00131   0.05607  -0.00054   0.05568   5.13636
   R10        5.08068   0.00131   0.05607  -0.00054   0.05568   5.13636
   R11        4.82874   0.00065   0.03128  -0.00803   0.02293   4.85167
   R12        5.08084   0.00131   0.05612  -0.00041   0.05586   5.13670
   R13        5.08084   0.00131   0.05612  -0.00041   0.05586   5.13670
   R14        5.08084   0.00131   0.05612  -0.00041   0.05586   5.13670
   R15        5.08084   0.00131   0.05612  -0.00041   0.05586   5.13670
   R16        5.98075   0.00294   0.11822   0.01696   0.13515   6.11590
    A1        1.88495   0.00000   0.00000   0.00000   0.00000   1.88495
    A2        1.88501   0.00000   0.00002  -0.00001   0.00000   1.88501
    A3        1.88495   0.00000   0.00000   0.00000   0.00000   1.88495
    A4        1.88493   0.00000  -0.00001   0.00001   0.00000   1.88493
    A5        1.88493   0.00000  -0.00001   0.00001   0.00000   1.88493
    A6        1.75416  -0.00030  -0.01129  -0.00371  -0.01470   1.73946
    A7        1.75416  -0.00030  -0.01129  -0.00376  -0.01475   1.73942
    A8        1.75416  -0.00030  -0.01129  -0.00373  -0.01472   1.73944
    A9        1.75416  -0.00030  -0.01129  -0.00373  -0.01472   1.73944
   A10        1.75416  -0.00030  -0.01129  -0.00376  -0.01475   1.73942
   A11        1.75416  -0.00030  -0.01129  -0.00371  -0.01470   1.73946
   A12        1.75416  -0.00030  -0.01129  -0.00376  -0.01475   1.73942
   A13        1.75416  -0.00030  -0.01129  -0.00373  -0.01472   1.73944
   A14        1.75416  -0.00030  -0.01129  -0.00373  -0.01472   1.73944
   A15        1.75416  -0.00030  -0.01129  -0.00376  -0.01475   1.73942
    D1        0.00000   0.00000   0.00000   0.00000   0.00000   0.00000
    D2        0.00000   0.00000   0.00000   0.00000   0.00000   0.00000
    D3        0.00000   0.00000   0.00000   0.00000   0.00000   0.00000
    D4        0.00000   0.00000   0.00000   0.00000   0.00000   0.00000
    D5        0.00000   0.00000   0.00000   0.00000   0.00000   0.00000
         Item               Value     Threshold  Converged?
 Maximum Force            0.002944     0.000450     NO 
 RMS     Force            0.000894     0.000300     NO 
 Maximum Displacement     0.067575     0.001800     NO 
 RMS     Displacement     0.017509     0.001200     NO 
 Predicted change in Energy=-5.975336D-04
 GradGradGradGradGradGradGradGradGradGradGradGradGradGradGradGradGradGrad

                          Input orientation:                          
 ---------------------------------------------------------------------
 Center     Atomic     Atomic              Coordinates (Angstroms)
 Number     Number      Type              X           Y           Z
 ---------------------------------------------------------------------
    1         14             0        2.077006    0.674851    0.000000
    2         14             0        0.000000    2.183798    0.000000
    3         14             0       -2.077006    0.674851    0.000000
    4         14             0       -1.283697   -1.766879    0.000000
    5         14             0        1.283697   -1.766879    0.000000
    6         14             0        0.000000    0.000128   -1.618198
    7         14             0        0.000000    0.000128    1.618198
 ---------------------------------------------------------------------
                    Distance matrix (angstroms):
                    1          2          3          4          5
     1  Si   0.000000
     2  Si   2.567269   0.000000
     3  Si   4.154011   2.567269   0.000000
     4  Si   4.154078   4.154001   2.567369   0.000000
     5  Si   2.567369   4.154001   4.154078   2.567394   0.000000
     6  Si   2.718045   2.717899   2.718045   2.718226   2.718226
     7  Si   2.718045   2.717899   2.718045   2.718226   2.718226
                    6          7
     6  Si   0.000000
     7  Si   3.236395   0.000000
 Symmetry turned off by external request.
 Stoichiometry    Si7(1-,2)
 Framework group  C1[X(Si7)]
 Deg. of freedom    15
 Full point group                 C1
 Rotational constants (GHZ):      1.0526475      1.0526402      0.7574950
 Standard basis: LANL2DZ (5D, 7F)
 Integral buffers will be    131072 words long.
 Raffenetti 2 integral format.
 Two-electron integral symmetry is turned off.
    56 basis functions,    84 primitive gaussians,    56 cartesian basis functions
    15 alpha electrons       14 beta electrons
       nuclear repulsion energy        60.4467439120 Hartrees.
 NAtoms=    7 NActive=    7 NUniq=    7 SFac= 7.50D-01 NAtFMM=   80 NAOKFM=F Big=F
 One-electron integrals computed using PRISM.
   1 Symmetry operations used in ECPInt.
 ECPInt:  NShTT=     406 NPrTT=     917 LenC2=     407 LenP2D=     901.
 LDataN:  DoStor=F MaxTD1= 3 Len=   28
 LDataN:  DoStor=T MaxTD1= 3 Len=   28
 NBasis=    56 RedAO= T  NBF=    56
 NBsUse=    56 1.00D-06 NBFU=    56
 Initial guess read from the read-write file:
 <S**2> of initial guess= 0.7550
 Harris functional with IExCor=  402 diagonalized for initial guess.
 ExpMin= 8.85D-02 ExpMax= 2.58D+00 ExpMxC= 2.58D+00 IAcc=2 IRadAn=         4 AccDes= 0.00D+00
 HarFok:  IExCor= 402 AccDes= 0.00D+00 IRadAn=         4 IDoV=1
 ScaDFX=  1.000000  1.000000  1.000000  1.000000
 Requested convergence on RMS density matrix=1.00D-08 within 128 cycles.
 Requested convergence on MAX density matrix=1.00D-06.
 Requested convergence on             energy=1.00D-06.
 No special actions if energy rises.
 Keep R1 and R2 integrals in memory in canonical form, NReq=     4308760.
 Integral accuracy reduced to 1.0D-05 until final iterations.
 Initial convergence to 1.0D-05 achieved.  Increase integral accuracy.
 SCF Done:  E(UB+HF-LYP) =  -27.0851834266     A.U. after   14 cycles
             Convg  =    0.8507D-08             -V/T =  3.6482
             S**2   =   0.7554
 Annihilation of the first spin contaminant:
 S**2 before annihilation     0.7554,   after     0.7500
 QCSCF skips out because SCF is already converged.
 Range of M.O.s used for correlation:     1    56
 NBasis=    56 NAE=    15 NBE=    14 NFC=     0 NFV=     0
 NROrb=     56 NOA=    15 NOB=    14 NVA=    41 NVB=    42

 **** Warning!!: The smallest beta delta epsilon is  0.89527129D-01

   1 Symmetry operations used in ECPInt.
 ECPInt:  NShTT=     406 NPrTT=     917 LenC2=     407 LenP2D=     901.
 LDataN:  DoStor=F MaxTD1= 4 Len=   56
 LDataN:  DoStor=T MaxTD1= 4 Len=   56
 Symmetrizing basis deriv contribution to polar:
 IMax=3 JMax=2 DiffMx= 0.00D+00
 G2DrvN: will do    8 centers at a time, making    1 passes doing MaxLOS=1.
 FoFDir/FoFCou used for L=0 through L=1.
 DoAtom=TTTTTTT
          Differentiating once with respect to electric field.
                with respect to dipole field.
          Differentiating once with respect to nuclear coordinates.
          Store integrals in memory, NReq=     3350774.
          There are  24 degrees of freedom in the 1st order CPHF.
    21 vectors were produced by pass  0.
 AX will form  21 AO Fock derivatives at one time.
    21 vectors were produced by pass  1.
    21 vectors were produced by pass  2.
    21 vectors were produced by pass  3.
    21 vectors were produced by pass  4.
    21 vectors were produced by pass  5.
    21 vectors were produced by pass  6.
    20 vectors were produced by pass  7.
     6 vectors were produced by pass  8.
     3 vectors were produced by pass  9.
 Inv2:  IOpt= 1 Iter= 1 AM= 2.19D-15 Conv= 1.00D-12.
 Inverted reduced A of dimension  176 with in-core refinement.
 Isotropic polarizability for W=    0.000000      231.44 Bohr**3.
 End of Minotr Frequency-dependent properties file   721 does not exist.
   1 Symmetry operations used in ECPInt.
 ECPInt:  NShTT=     406 NPrTT=     917 LenC2=     407 LenP2D=     917.
 LDataN:  DoStor=F MaxTD1= 5 Len=  102
 LDataN:  DoStor=T MaxTD1= 5 Len=  102
 -------------------------------------------------------------------
 Center     Atomic                   Forces (Hartrees/Bohr)
 Number     Number              X              Y              Z
 -------------------------------------------------------------------
    1         14           0.000019529    0.000005514    0.000000000
    2         14           0.000000000    0.000019992    0.000000000
    3         14          -0.000019529    0.000005514    0.000000000
    4         14          -0.000011361   -0.000016107    0.000000000
    5         14           0.000011362   -0.000016107    0.000000000
    6         14           0.000000000    0.000000596    0.000011789
    7         14           0.000000000    0.000000596   -0.000011787
 -------------------------------------------------------------------
 Cartesian Forces:  Max     0.000019992 RMS     0.000010417

 GradGradGradGradGradGradGradGradGradGradGradGradGradGradGradGradGradGrad
 Berny optimization.
 Internal  Forces:  Max     0.000015485 RMS     0.000005644
 Search for a local minimum.
 Step number   4 out of a maximum of 100
 All quantities printed in internal units (Hartrees-Bohrs-Radians)
 Second derivative matrix not updated -- analytic derivatives used.
 Trust test= 1.03D+00 RLast= 2.33D-01 DXMaxT set to 6.00D-01
     Eigenvalues ---    0.01272   0.01272   0.01274   0.01645   0.01653
     Eigenvalues ---    0.02200   0.02304   0.02306   0.02553   0.02554
     Eigenvalues ---    0.03409   0.03410   0.04269   0.04425   0.04429
     Eigenvalues --- 1000.000001000.000001000.000001000.000001000.00000
     Eigenvalues --- 1000.000001000.000001000.000001000.000001000.00000
     Eigenvalues --- 1000.000001000.000001000.000001000.000001000.00000
     Eigenvalues --- 1000.000001000.000001000.000001000.000001000.00000
     Eigenvalues --- 1000.00000
 RFO step:  Lambda=-2.68067593D-08.
 Quintic linear search produced a step of  0.00029.
 Iteration  1 RMS(Cart)=  0.00009490 RMS(Int)=  0.00000003
 Iteration  2 RMS(Cart)=  0.00000000 RMS(Int)=  0.00000003
 Variable       Old X    -DE/DX   Delta X   Delta X   Delta X     New X
                                 (Linear)    (Quad)   (Total)
    R1        4.85144   0.00001   0.00001   0.00028   0.00029   4.85172
    R2        4.85162   0.00001   0.00001   0.00025   0.00025   4.85188
    R3        5.13636   0.00000   0.00002   0.00005   0.00007   5.13643
    R4        5.13636   0.00000   0.00002   0.00005   0.00007   5.13643
    R5        4.85144   0.00001   0.00001   0.00028   0.00029   4.85172
    R6        5.13609   0.00000   0.00002   0.00003   0.00005   5.13613
    R7        5.13609   0.00000   0.00002   0.00003   0.00005   5.13613
    R8        4.85162   0.00001   0.00001   0.00025   0.00025   4.85188
    R9        5.13636   0.00000   0.00002   0.00005   0.00007   5.13643
   R10        5.13636   0.00000   0.00002   0.00005   0.00007   5.13643
   R11        4.85167   0.00001   0.00001   0.00024   0.00024   4.85191
   R12        5.13670   0.00000   0.00002   0.00007   0.00009   5.13679
   R13        5.13670   0.00000   0.00002   0.00007   0.00009   5.13679
   R14        5.13670   0.00000   0.00002   0.00007   0.00009   5.13679
   R15        5.13670   0.00000   0.00002   0.00007   0.00009   5.13679
   R16        6.11590  -0.00002   0.00004  -0.00041  -0.00037   6.11553
    A1        1.88495   0.00000   0.00000   0.00000   0.00000   1.88495
    A2        1.88501   0.00000   0.00000   0.00000   0.00000   1.88501
    A3        1.88495   0.00000   0.00000   0.00000   0.00000   1.88495
    A4        1.88493   0.00000   0.00000   0.00001   0.00001   1.88494
    A5        1.88493   0.00000   0.00000   0.00001   0.00001   1.88494
    A6        1.73946   0.00000   0.00000   0.00011   0.00011   1.73956
    A7        1.73942   0.00000   0.00000   0.00010   0.00009   1.73951
    A8        1.73944   0.00000   0.00000   0.00010   0.00010   1.73953
    A9        1.73944   0.00000   0.00000   0.00010   0.00010   1.73953
   A10        1.73942   0.00000   0.00000   0.00010   0.00009   1.73951
   A11        1.73946   0.00000   0.00000   0.00011   0.00011   1.73956
   A12        1.73942   0.00000   0.00000   0.00010   0.00009   1.73951
   A13        1.73944   0.00000   0.00000   0.00010   0.00010   1.73953
   A14        1.73944   0.00000   0.00000   0.00010   0.00010   1.73953
   A15        1.73942   0.00000   0.00000   0.00010   0.00009   1.73951
    D1        0.00000   0.00000   0.00000   0.00000   0.00000   0.00000
    D2        0.00000   0.00000   0.00000   0.00000   0.00000   0.00000
    D3        0.00000   0.00000   0.00000   0.00000   0.00000   0.00000
    D4        0.00000   0.00000   0.00000   0.00000   0.00000   0.00000
    D5        0.00000   0.00000   0.00000   0.00000   0.00000   0.00000
         Item               Value     Threshold  Converged?
 Maximum Force            0.000015     0.000450     YES
 RMS     Force            0.000006     0.000300     YES
 Maximum Displacement     0.000225     0.001800     YES
 RMS     Displacement     0.000095     0.001200     YES
 Predicted change in Energy=-1.345540D-08
 Optimization completed.
    -- Stationary point found.
                           ----------------------------
                           !   Optimized Parameters   !
                           ! (Angstroms and Degrees)  !
 --------------------------                            --------------------------
 ! Name  Definition              Value          Derivative Info.                !
 --------------------------------------------------------------------------------
 ! R1    R(1,2)                  2.5673         -DE/DX =    0.0                 !
 ! R2    R(1,5)                  2.5674         -DE/DX =    0.0                 !
 ! R3    R(1,6)                  2.718          -DE/DX =    0.0                 !
 ! R4    R(1,7)                  2.718          -DE/DX =    0.0                 !
 ! R5    R(2,3)                  2.5673         -DE/DX =    0.0                 !
 ! R6    R(2,6)                  2.7179         -DE/DX =    0.0                 !
 ! R7    R(2,7)                  2.7179         -DE/DX =    0.0                 !
 ! R8    R(3,4)                  2.5674         -DE/DX =    0.0                 !
 ! R9    R(3,6)                  2.718          -DE/DX =    0.0                 !
 ! R10   R(3,7)                  2.718          -DE/DX =    0.0                 !
 ! R11   R(4,5)                  2.5674         -DE/DX =    0.0                 !
 ! R12   R(4,6)                  2.7182         -DE/DX =    0.0                 !
 ! R13   R(4,7)                  2.7182         -DE/DX =    0.0                 !
 ! R14   R(5,6)                  2.7182         -DE/DX =    0.0                 !
 ! R15   R(5,7)                  2.7182         -DE/DX =    0.0                 !
 ! R16   R(6,7)                  3.2364         -DE/DX =    0.0                 !
 ! A1    A(2,1,5)              107.9997         -DE/DX =    0.0                 !
 ! A2    A(1,2,3)              108.0031         -DE/DX =    0.0                 !
 ! A3    A(2,3,4)              107.9997         -DE/DX =    0.0                 !
 ! A4    A(3,4,5)              107.9988         -DE/DX =    0.0                 !
 ! A5    A(1,5,4)              107.9988         -DE/DX =    0.0                 !
 ! A6    A(1,6,3)               99.6636         -DE/DX =    0.0                 !
 ! A7    A(1,6,4)               99.6613         -DE/DX =    0.0                 !
 ! A8    A(2,6,4)               99.6624         -DE/DX =    0.0                 !
 ! A9    A(2,6,5)               99.6624         -DE/DX =    0.0                 !
 ! A10   A(3,6,5)               99.6613         -DE/DX =    0.0                 !
 ! A11   A(1,7,3)               99.6636         -DE/DX =    0.0                 !
 ! A12   A(1,7,4)               99.6613         -DE/DX =    0.0                 !
 ! A13   A(2,7,4)               99.6624         -DE/DX =    0.0                 !
 ! A14   A(2,7,5)               99.6624         -DE/DX =    0.0                 !
 ! A15   A(3,7,5)               99.6613         -DE/DX =    0.0                 !
 ! D1    D(5,1,2,3)              0.0            -DE/DX =    0.0                 !
 ! D2    D(2,1,5,4)              0.0            -DE/DX =    0.0                 !
 ! D3    D(1,2,3,4)              0.0            -DE/DX =    0.0                 !
 ! D4    D(2,3,4,5)              0.0            -DE/DX =    0.0                 !
 ! D5    D(3,4,5,1)              0.0            -DE/DX =    0.0                 !
 --------------------------------------------------------------------------------
 GradGradGradGradGradGradGradGradGradGradGradGradGradGradGradGradGradGrad

                          Input orientation:                          
 ---------------------------------------------------------------------
 Center     Atomic     Atomic              Coordinates (Angstroms)
 Number     Number      Type              X           Y           Z
 ---------------------------------------------------------------------
    1         14             0        2.077006    0.674851    0.000000
    2         14             0        0.000000    2.183798    0.000000
    3         14             0       -2.077006    0.674851    0.000000
    4         14             0       -1.283697   -1.766879    0.000000
    5         14             0        1.283697   -1.766879    0.000000
    6         14             0        0.000000    0.000128   -1.618198
    7         14             0        0.000000    0.000128    1.618198
 ---------------------------------------------------------------------
                    Distance matrix (angstroms):
                    1          2          3          4          5
     1  Si   0.000000
     2  Si   2.567269   0.000000
     3  Si   4.154011   2.567269   0.000000
     4  Si   4.154078   4.154001   2.567369   0.000000
     5  Si   2.567369   4.154001   4.154078   2.567394   0.000000
     6  Si   2.718045   2.717899   2.718045   2.718226   2.718226
     7  Si   2.718045   2.717899   2.718045   2.718226   2.718226
                    6          7
     6  Si   0.000000
     7  Si   3.236395   0.000000
 Symmetry turned off by external request.
 Stoichiometry    Si7(1-,2)
 Framework group  C1[X(Si7)]
 Deg. of freedom    15
 Full point group                 C1
 Rotational constants (GHZ):      1.0526475      1.0526402      0.7574950

 **********************************************************************

            Population analysis using the SCF density.

 **********************************************************************

 Alpha  occ. eigenvalues --   -0.51764  -0.38754  -0.38754  -0.33949  -0.24106
 Alpha  occ. eigenvalues --   -0.24105  -0.23613  -0.14136  -0.14069  -0.14068
 Alpha  occ. eigenvalues --   -0.09158  -0.09157  -0.08796  -0.08796  -0.05604
 Alpha virt. eigenvalues --    0.05185   0.05186   0.06135   0.07451   0.07451
 Alpha virt. eigenvalues --    0.11196   0.11762   0.11763   0.13339   0.13339
 Alpha virt. eigenvalues --    0.14581   0.14581   0.22897   0.40201   0.42467
 Alpha virt. eigenvalues --    0.43978   0.43978   0.44180   0.44180   0.46925
 Alpha virt. eigenvalues --    0.46925   0.48353   0.48354   0.48815   0.48816
 Alpha virt. eigenvalues --    0.49962   0.49962   0.50075   0.51272   0.52851
 Alpha virt. eigenvalues --    0.52851   0.55721   0.55721   0.58454   8.51620
 Alpha virt. eigenvalues --    9.99469   9.99476  10.92019  10.92033  10.94518
 Alpha virt. eigenvalues --   11.44027
  Beta  occ. eigenvalues --   -0.51391  -0.38458  -0.38458  -0.32875  -0.23842
  Beta  occ. eigenvalues --   -0.23841  -0.22595  -0.13436  -0.13436  -0.11552
  Beta  occ. eigenvalues --   -0.09032  -0.09031  -0.08666  -0.08666
  Beta virt. eigenvalues --    0.00287   0.05742   0.05742   0.06971   0.07877
  Beta virt. eigenvalues --    0.07877   0.11822   0.11832   0.11832   0.13562
  Beta virt. eigenvalues --    0.13562   0.15481   0.15481   0.22989   0.41848
  Beta virt. eigenvalues --    0.43006   0.44098   0.44098   0.44200   0.44201
  Beta virt. eigenvalues --    0.47220   0.47220   0.48371   0.48373   0.49127
  Beta virt. eigenvalues --    0.49129   0.50114   0.50115   0.51530   0.51988
  Beta virt. eigenvalues --    0.53223   0.53224   0.55811   0.55812   0.58501
  Beta virt. eigenvalues --    8.51606   9.99443   9.99450  10.92193  10.92206
  Beta virt. eigenvalues --   10.94597  11.43989
          Condensed to atoms (all electrons):
              1          2          3          4          5          6
     1  Si   3.919804   0.097985  -0.055085  -0.055076   0.098022   0.052190
     2  Si   0.097985   3.919872   0.097985  -0.055083  -0.055083   0.052180
     3  Si  -0.055085   0.097985   3.919804   0.098022  -0.055076   0.052190
     4  Si  -0.055076  -0.055083   0.098022   3.919744   0.098046   0.052190
     5  Si   0.098022  -0.055083  -0.055076   0.098046   3.919744   0.052190
     6  Si   0.052190   0.052180   0.052190   0.052190   0.052190   4.063230
     7  Si   0.052190   0.052180   0.052190   0.052190   0.052190  -0.099253
              7
     1  Si   0.052190
     2  Si   0.052180
     3  Si   0.052190
     4  Si   0.052190
     5  Si   0.052190
     6  Si  -0.099253
     7  Si   4.063230
 Mulliken atomic charges:
              1
     1  Si  -0.110030
     2  Si  -0.110037
     3  Si  -0.110030
     4  Si  -0.110033
     5  Si  -0.110033
     6  Si  -0.224919
     7  Si  -0.224919
 Sum of Mulliken charges=  -1.00000
 Atomic charges with hydrogens summed into heavy atoms:
              1
     1  Si  -0.110030
     2  Si  -0.110037
     3  Si  -0.110030
     4  Si  -0.110033
     5  Si  -0.110033
     6  Si  -0.224919
     7  Si  -0.224919
 Sum of Mulliken charges=  -1.00000
          Atomic-Atomic Spin Densities.
              1          2          3          4          5          6
     1  Si   0.057099   0.004976   0.002429   0.002429   0.004979  -0.010677
     2  Si   0.004976   0.057084   0.004976   0.002429   0.002429  -0.010677
     3  Si   0.002429   0.004976   0.057099   0.004979   0.002429  -0.010677
     4  Si   0.002429   0.002429   0.004979   0.057125   0.004981  -0.010679
     5  Si   0.004979   0.002429   0.002429   0.004981   0.057125  -0.010679
     6  Si  -0.010677  -0.010677  -0.010677  -0.010679  -0.010679   0.455391
     7  Si  -0.010677  -0.010677  -0.010677  -0.010679  -0.010679  -0.028412
              7
     1  Si  -0.010677
     2  Si  -0.010677
     3  Si  -0.010677
     4  Si  -0.010679
     5  Si  -0.010679
     6  Si  -0.028412
     7  Si   0.455391
 Mulliken atomic spin densities:
              1
     1  Si   0.050556
     2  Si   0.050539
     3  Si   0.050556
     4  Si   0.050585
     5  Si   0.050585
     6  Si   0.373589
     7  Si   0.373589
 Sum of Mulliken spin densities=   1.00000
 APT atomic charges:
              1
     1  Si  -0.115771
     2  Si  -0.115729
     3  Si  -0.115771
     4  Si  -0.115771
     5  Si  -0.115771
     6  Si  -0.210594
     7  Si  -0.210594
 Sum of APT charges=  -1.00000
 APT Atomic charges with hydrogens summed into heavy atoms:
              1
     1  Si  -0.115771
     2  Si  -0.115729
     3  Si  -0.115771
     4  Si  -0.115771
     5  Si  -0.115771
     6  Si  -0.210594
     7  Si  -0.210594
 Sum of APT charges=  -1.00000
 Electronic spatial extent (au):  <R**2>=   659.1656
 Charge=    -1.0000 electrons
 Dipole moment (field-independent basis, Debye):
    X=     0.0000    Y=    -0.0003    Z=     0.0000  Tot=     0.0003
 Quadrupole moment (field-independent basis, Debye-Ang):
   XX=  -114.0556   YY=  -114.0559   ZZ=   -99.6968
   XY=     0.0000   XZ=     0.0000   YZ=     0.0000
 Traceless Quadrupole moment (field-independent basis, Debye-Ang):
   XX=    -4.7861   YY=    -4.7865   ZZ=     9.5726
   XY=     0.0000   XZ=     0.0000   YZ=     0.0000
 Octapole moment (field-independent basis, Debye-Ang**2):
  XXX=     0.0000  YYY=     0.0009  ZZZ=     0.0000  XYY=     0.0000
  XXY=     0.0010  XXZ=     0.0000  XZZ=     0.0000  YZZ=    -0.0010
  YYZ=     0.0000  XYZ=     0.0000
 Hexadecapole moment (field-independent basis, Debye-Ang**3):
 XXXX= -1341.4603 YYYY= -1341.4534 ZZZZ=  -695.9985 XXXY=     0.0000
 XXXZ=     0.0000 YYYX=     0.0000 YYYZ=     0.0000 ZZZX=     0.0000
 ZZZY=     0.0000 XXYY=  -447.1525 XXZZ=  -281.8548 YYZZ=  -281.8529
 XXYZ=     0.0000 YYXZ=     0.0000 ZZXY=     0.0000
 N-N= 6.044674391197D+01 E-N=-1.744204960582D+02  KE= 1.022790770040D+01
  Exact polarizability: 252.735   0.000 252.736   0.000   0.000 188.862
 Approx polarizability: 784.295   0.000 784.279   0.000   0.000 579.565
                          Isotropic Fermi Contact Couplings
        Atom                 a.u.       MegaHertz       Gauss      10(-4) cm-1
     1  Si(29)             0.00000       0.00017       0.00006       0.00006
     2  Si(29)             0.00000       0.00017       0.00006       0.00006
     3  Si(29)             0.00000       0.00017       0.00006       0.00006
     4  Si(29)             0.00000       0.00017       0.00006       0.00006
     5  Si(29)             0.00000       0.00017       0.00006       0.00006
     6  Si(29)             0.00000      -0.00137      -0.00049      -0.00046
     7  Si(29)             0.00000      -0.00137      -0.00049      -0.00046
 --------------------------------------------------------
       Center         ----  Spin Dipole Couplings  ----
                      3XX-RR        3YY-RR        3ZZ-RR
 --------------------------------------------------------
     1   Atom       -0.004831     -0.006249      0.011080
     2   Atom       -0.006417     -0.004663      0.011079
     3   Atom       -0.004831     -0.006249      0.011080
     4   Atom       -0.005812     -0.005270      0.011082
     5   Atom       -0.005812     -0.005270      0.011082
     6   Atom       -0.019961     -0.019961      0.039922
     7   Atom       -0.019961     -0.019961      0.039922
 --------------------------------------------------------
                        XY            XZ            YZ
 --------------------------------------------------------
     1   Atom        0.000515      0.000000      0.000000
     2   Atom        0.000000      0.000000      0.000000
     3   Atom       -0.000515      0.000000      0.000000
     4   Atom        0.000833      0.000000      0.000000
     5   Atom       -0.000833      0.000000      0.000000
     6   Atom        0.000000      0.000000      0.000002
     7   Atom        0.000000      0.000000     -0.000002
 --------------------------------------------------------


 ---------------------------------------------------------------------------------
              Anisotropic Spin Dipole Couplings in Principal Axis System
 ---------------------------------------------------------------------------------

       Atom             a.u.   MegaHertz   Gauss  10(-4) cm-1        Axes

              Baa    -0.0064     0.681     0.243     0.227 -0.3090  0.9511  0.0000
     1 Si(29) Bbb    -0.0047     0.495     0.177     0.165  0.9511  0.3090  0.0000
              Bcc     0.0111    -1.175    -0.419    -0.392  0.0000  0.0000  1.0000
 
              Baa    -0.0064     0.681     0.243     0.227  1.0000  0.0000  0.0000
     2 Si(29) Bbb    -0.0047     0.495     0.177     0.165  0.0000  1.0000  0.0000
              Bcc     0.0111    -1.175    -0.419    -0.392  0.0000  0.0000  1.0000
 
              Baa    -0.0064     0.681     0.243     0.227  0.3090  0.9511  0.0000
     3 Si(29) Bbb    -0.0047     0.495     0.177     0.165  0.9511 -0.3090  0.0000
              Bcc     0.0111    -1.175    -0.419    -0.392  0.0000  0.0000  1.0000
 
              Baa    -0.0064     0.681     0.243     0.227  0.8090 -0.5878  0.0000
     4 Si(29) Bbb    -0.0047     0.495     0.177     0.165  0.5878  0.8090  0.0000
              Bcc     0.0111    -1.176    -0.420    -0.392  0.0000  0.0000  1.0000
 
              Baa    -0.0064     0.681     0.243     0.227  0.8090  0.5878  0.0000
     5 Si(29) Bbb    -0.0047     0.495     0.177     0.165 -0.5878  0.8090  0.0000
              Bcc     0.0111    -1.176    -0.420    -0.392  0.0000  0.0000  1.0000
 
              Baa    -0.0200     2.118     0.756     0.706  1.0000  0.0000  0.0000
     6 Si(29) Bbb    -0.0200     2.118     0.756     0.706  0.0000  1.0000  0.0000
              Bcc     0.0399    -4.235    -1.511    -1.413  0.0000  0.0000  1.0000
 
              Baa    -0.0200     2.118     0.756     0.706  1.0000  0.0000  0.0000
     7 Si(29) Bbb    -0.0200     2.118     0.756     0.706  0.0000  1.0000  0.0000
              Bcc     0.0399    -4.235    -1.511    -1.413  0.0000  0.0000  1.0000
 

 ---------------------------------------------------------------------------------

 Full mass-weighted force constant matrix:
 Low frequencies ---   -9.6216   -9.2168   -7.8801   -0.0005    0.0001    0.0005
 Low frequencies ---  141.0536  141.0885  153.7816
 Diagonal vibrational polarizability:
        1.9283892       1.9250915       1.2401370
 Harmonic frequencies (cm**-1), IR intensities (KM/Mole), Raman scattering
 activities (A**4/AMU), depolarization ratios for plane and unpolarized
 incident light, reduced masses (AMU), force constants (mDyne/A),
 and normal coordinates:
                     1                      2                      3
                     A                      A                      A
 Frequencies --   141.0536               141.0885               153.7816
 Red. masses --    27.9769                27.9769                27.9769
 Frc consts  --     0.3280                 0.3281                 0.3898
 IR Inten    --     0.0000                 0.0000                 0.4338
 Atom AN      X      Y      Z        X      Y      Z        X      Y      Z
   1  14     0.00   0.00   0.51     0.00   0.00   0.37     0.04  -0.12   0.00
   2  14     0.00   0.00  -0.63     0.00   0.00   0.00     0.42   0.00   0.00
   3  14     0.00   0.00   0.51     0.00   0.00  -0.37     0.04   0.12   0.00
   4  14     0.00   0.00  -0.20     0.00   0.00   0.60     0.28  -0.20   0.00
   5  14     0.00   0.00  -0.20     0.00   0.00  -0.60     0.28   0.20   0.00
   6  14     0.00   0.00   0.00     0.00   0.00   0.00    -0.53   0.00   0.00
   7  14     0.00   0.00   0.00     0.00   0.00   0.00    -0.53   0.00   0.00
                     4                      5                      6
                     A                      A                      A
 Frequencies --   154.0876               190.2809               218.2212
 Red. masses --    27.9769                27.9769                27.9769
 Frc consts  --     0.3914                 0.5968                 0.7850
 IR Inten    --     0.4317                 1.6685                 0.0000
 Atom AN      X      Y      Z        X      Y      Z        X      Y      Z
   1  14    -0.12   0.38   0.00     0.00   0.00   0.24    -0.30   0.26   0.00
   2  14     0.00   0.01   0.00     0.00   0.00   0.24     0.00   0.26   0.00
   3  14     0.12   0.38   0.00     0.00   0.00   0.24     0.30   0.26   0.00
   4  14    -0.20   0.15   0.00     0.00   0.00   0.24     0.40  -0.39   0.00
   5  14     0.20   0.15   0.00     0.00   0.00   0.24    -0.40  -0.39   0.00
   6  14     0.00  -0.53   0.00     0.00   0.00  -0.60     0.00   0.00   0.00
   7  14     0.00  -0.53   0.00     0.00   0.00  -0.60     0.00   0.00   0.00
                     7                      8                      9
                     A                      A                      A
 Frequencies --   218.3661               239.0649               239.1305
 Red. masses --    27.9769                27.9769                27.9769
 Frc consts  --     0.7860                 0.9421                 0.9426
 IR Inten    --     0.0000                 0.0000                 0.0000
 Atom AN      X      Y      Z        X      Y      Z        X      Y      Z
   1  14     0.00   0.49   0.00     0.00   0.00  -0.33     0.00   0.00  -0.11
   2  14     0.58   0.00   0.00     0.00   0.00   0.00     0.00   0.00  -0.35
[...]
   5  14     0.16   0.22   0.00    -0.36   0.06   0.00    -0.21  -0.47   0.00
   6  14     0.00   0.00   0.56     0.00   0.00   0.00     0.00   0.00   0.00
   7  14     0.00   0.00  -0.56     0.00   0.00   0.00     0.00   0.00   0.00
                    13                     14                     15
                    A'                     A'                     A'
 Frequencies --   377.2224               377.3074               391.5674
 Red. masses --    27.9769                27.9769                27.9769
 Frc consts  --     2.3456                 2.3466                 2.5273
 IR Inten    --     2.0969                 2.0976                 0.0000
 Atom AN      X      Y      Z        X      Y      Z        X      Y      Z
   1  14     0.43  -0.23   0.00    -0.23  -0.20   0.00    -0.34   0.11   0.00
   2  14    -0.27   0.00   0.00     0.00   0.51   0.00     0.00   0.35   0.00
   3  14     0.43   0.23   0.00     0.23  -0.20   0.00     0.34   0.11   0.00
   4  14     0.00  -0.37   0.00    -0.37   0.24   0.00     0.21  -0.29   0.00
   5  14     0.00   0.37   0.00     0.37   0.24   0.00    -0.21  -0.29   0.00
   6  14    -0.29   0.00   0.00     0.00  -0.29   0.00     0.00   0.00   0.43
   7  14    -0.29   0.00   0.00     0.00  -0.29   0.00     0.00   0.00  -0.43

 -------------------
 - Thermochemistry -
 -------------------
 Temperature   298.150 Kelvin.  Pressure   1.00000 Atm.
 Atom  1 has atomic number 14 and mass  27.97693
 Atom  2 has atomic number 14 and mass  27.97693
 Atom  3 has atomic number 14 and mass  27.97693
 Atom  4 has atomic number 14 and mass  27.97693
 Atom  5 has atomic number 14 and mass  27.97693
 Atom  6 has atomic number 14 and mass  27.97693
 Atom  7 has atomic number 14 and mass  27.97693
 Molecular mass:   195.83850 amu.
 Principal axes and moments of inertia in atomic units:
                           1         2         3
     EIGENVALUES --  1517.271461517.321132178.10591
           X            1.00000   0.00000   0.00000
           Y            0.00000   1.00000   0.00000
           Z            0.00000   0.00000   1.00000
 This molecule is an asymmetric top.
 Rotational symmetry number  1.
 Warning -- assumption of classical behavior for rotation
           may cause significant error
 Rotational temperatures (Kelvin)      0.05709     0.05708     0.03977
 Rotational constants (GHZ):           1.18946     1.18943     0.82858
 Zero-point vibrational energy      25653.3 (Joules/Mol)
                                    6.13129 (Kcal/Mol)
 Warning -- explicit consideration of  15 degrees of freedom as
           vibrations may cause significant error
 Vibrational temperatures:    262.06   262.43   309.78   309.91   365.41
          (Kelvin)            388.34   388.71   420.62   420.63   432.55
                              480.30   481.02   542.74   542.86   563.38
 
 Zero-point correction=                           0.009771 (Hartree/Particle)
 Thermal correction to Energy=                    0.019274
 Thermal correction to Enthalpy=                  0.020218
 Thermal correction to Gibbs Free Energy=        -0.025634
 Sum of electronic and zero-point Energies=          -2026.619026
 Sum of electronic and thermal Energies=             -2026.609523
 Sum of electronic and thermal Enthalpies=           -2026.608578
 Sum of electronic and thermal Free Energies=        -2026.654431
 
                     E (Thermal)             CV                S
                      KCal/Mol        Cal/Mol-Kelvin    Cal/Mol-Kelvin
 Total                   12.095             31.326             96.504
 Electronic               0.000              0.000              1.377
 Translational            0.889              2.981             41.722
 Rotational               0.889              2.981             29.996
 Vibrational             10.317             25.365             23.409
 Vibration  1             0.630              1.864              2.306
 Vibration  2             0.630              1.864              2.304
 Vibration  3             0.645              1.818              1.998
 Vibration  4             0.645              1.818              1.997
 Vibration  5             0.665              1.756              1.703
 Vibration  6             0.674              1.729              1.597
 Vibration  7             0.674              1.728              1.595
 Vibration  8             0.688              1.688              1.460
 Vibration  9             0.688              1.688              1.460
 Vibration 10             0.693              1.672              1.413
 Vibration 11             0.715              1.608              1.241
 Vibration 12             0.716              1.607              1.239
 Vibration 13             0.748              1.519              1.050
 Vibration 14             0.748              1.518              1.050
 Vibration 15             0.759              1.488              0.994
                       Q            Log10(Q)             Ln(Q)
 Total Bot       0.617799D+12         11.790847         27.149429
 Total V=0       0.192800D+17         16.285106         37.497843
 Vib (Bot)       0.357733D-02         -2.446441         -5.633139
 Vib (Bot)  1    0.110190D+01          0.042142          0.097036
 Vib (Bot)  2    0.110026D+01          0.041495          0.095545
 Vib (Bot)  3    0.920478D+00         -0.035987         -0.082863
 Vib (Bot)  4    0.920062D+00         -0.036183         -0.083314
 Vib (Bot)  5    0.767008D+00         -0.115200         -0.265258
 Vib (Bot)  6    0.716050D+00         -0.145057         -0.334006
 Vib (Bot)  7    0.715269D+00         -0.145531         -0.335096
 Vib (Bot)  8    0.653298D+00         -0.184889         -0.425723
 Vib (Bot)  9    0.653269D+00         -0.184908         -0.425766
 Vib (Bot) 10    0.632349D+00         -0.199043         -0.458313
 Vib (Bot) 11    0.558384D+00         -0.253067         -0.582709
 Vib (Bot) 12    0.557383D+00         -0.253846         -0.584503
 Vib (Bot) 13    0.480236D+00         -0.318545         -0.733477
 Vib (Bot) 14    0.480100D+00         -0.318668         -0.733761
 Vib (Bot) 15    0.457979D+00         -0.339155         -0.780933
 Vib (V=0)       0.111639D+03          2.047818          4.715275
 Vib (V=0)  1    0.171004D+01          0.233005          0.536514
 Vib (V=0)  2    0.170854D+01          0.232625          0.535639
 Vib (V=0)  3    0.154751D+01          0.189634          0.436648
 Vib (V=0)  4    0.154715D+01          0.189531          0.436412
 Vib (V=0)  5    0.141559D+01          0.150937          0.347545
 Vib (V=0)  6    0.137334D+01          0.137779          0.317248
 Vib (V=0)  7    0.137270D+01          0.137576          0.316782
 Vib (V=0)  8    0.132268D+01          0.121454          0.279658
 Vib (V=0)  9    0.132265D+01          0.121447          0.279641
 Vib (V=0) 10    0.130614D+01          0.115991          0.267078
 Vib (V=0) 11    0.124953D+01          0.096746          0.222766
 Vib (V=0) 12    0.124878D+01          0.096487          0.222169
 Vib (V=0) 13    0.119327D+01          0.076740          0.176700
 Vib (V=0) 14    0.119318D+01          0.076705          0.176620
 Vib (V=0) 15    0.117804D+01          0.071162          0.163856
 Electronic      0.200000D+01          0.301030          0.693147
 Translational   0.107721D+09          8.032302         18.495059
 Rotational      0.801597D+06          5.903956         13.594362
 ***** Axes restored to original set *****
 -------------------------------------------------------------------
 Center     Atomic                   Forces (Hartrees/Bohr)
 Number     Number              X              Y              Z
 -------------------------------------------------------------------
    1         14           0.000001536    0.000000496    0.000000000
    2         14          -0.000000001    0.000001615    0.000000000
    3         14          -0.000001537    0.000000498    0.000000000
    4         14          -0.000000942   -0.000001325    0.000000000
    5         14           0.000000943   -0.000001325    0.000000000
    6         14           0.000000000    0.000000020   -0.000005934
    7         14           0.000000000    0.000000020    0.000005934
 -------------------------------------------------------------------
 Cartesian Forces:  Max     0.000005934 RMS     0.000001995

 GradGradGradGradGradGradGradGradGradGradGradGradGradGradGradGradGradGrad
 Berny optimization.
 Internal  Forces:  Max     0.000002725 RMS     0.000000700
 Search for a local minimum.
 Step number   1 out of a maximum of   2
 All quantities printed in internal units (Hartrees-Bohrs-Radians)
 Second derivative matrix not updated -- analytic derivatives used.
     Eigenvalues ---    0.02063   0.02068   0.02340   0.02936   0.03009
     Eigenvalues ---    0.03014   0.03658   0.03666   0.03779   0.03779
     Eigenvalues ---    0.04927   0.04928   0.05398   0.05803   0.05819
     Eigenvalues --- 1000.000001000.000001000.000001000.000001000.00000
     Eigenvalues --- 1000.000001000.000001000.000001000.000001000.00000
     Eigenvalues --- 1000.000001000.000001000.000001000.000001000.00000
     Eigenvalues --- 1000.000001000.000001000.000001000.000001000.00000
     Eigenvalues --- 1000.00000
 Angle between quadratic step and forces=   1.88 degrees.
 Linear search not attempted -- first point.
 Iteration  1 RMS(Cart)=  0.00001127 RMS(Int)=  0.00000000
 Iteration  2 RMS(Cart)=  0.00000000 RMS(Int)=  0.00000000
 Variable       Old X    -DE/DX   Delta X   Delta X   Delta X     New X
                                 (Linear)    (Quad)   (Total)
    R1        4.63852   0.00000   0.00000   0.00001   0.00001   4.63852
    R2        4.63887   0.00000   0.00000   0.00001   0.00001   4.63887
    R3        4.81914   0.00000   0.00000   0.00003   0.00003   4.81917
    R4        4.81914   0.00000   0.00000   0.00003   0.00003   4.81917
    R5        4.63852   0.00000   0.00000   0.00001   0.00001   4.63852
    R6        4.81889   0.00000   0.00000   0.00003   0.00003   4.81892
    R7        4.81889   0.00000   0.00000   0.00003   0.00003   4.81892
    R8        4.63887   0.00000   0.00000   0.00001   0.00001   4.63887
    R9        4.81914   0.00000   0.00000   0.00003   0.00003   4.81917
   R10        4.81914   0.00000   0.00000   0.00003   0.00003   4.81917
   R11        4.63910   0.00000   0.00000   0.00001   0.00001   4.63910
   R12        4.81930   0.00000   0.00000   0.00003   0.00003   4.81934
   R13        4.81930   0.00000   0.00000   0.00003   0.00003   4.81934
   R14        4.81930   0.00000   0.00000   0.00003   0.00003   4.81934
   R15        4.81930   0.00000   0.00000   0.00003   0.00003   4.81934
   R16        5.53300   0.00000   0.00000   0.00009   0.00009   5.53309
    A1        1.88495   0.00000   0.00000   0.00000   0.00000   1.88495
    A2        1.88508   0.00000   0.00000   0.00000   0.00000   1.88508
    A3        1.88495   0.00000   0.00000   0.00000   0.00000   1.88495
    A4        1.88490   0.00000   0.00000   0.00000   0.00000   1.88490
    A5        1.88490   0.00000   0.00000   0.00000   0.00000   1.88490
    A6        1.78528   0.00000   0.00000  -0.00001  -0.00001   1.78527
    A7        1.78533   0.00000   0.00000  -0.00001  -0.00001   1.78531
    A8        1.78527   0.00000   0.00000  -0.00001  -0.00001   1.78526
    A9        1.78527   0.00000   0.00000  -0.00001  -0.00001   1.78526
   A10        1.78533   0.00000   0.00000  -0.00001  -0.00001   1.78531
   A11        1.78528   0.00000   0.00000  -0.00001  -0.00001   1.78527
   A12        1.78533   0.00000   0.00000  -0.00001  -0.00001   1.78531
   A13        1.78527   0.00000   0.00000  -0.00001  -0.00001   1.78526
   A14        1.78527   0.00000   0.00000  -0.00001  -0.00001   1.78526
   A15        1.78533   0.00000   0.00000  -0.00001  -0.00001   1.78531
    D1        0.00000   0.00000   0.00000   0.00000   0.00000   0.00000
    D2        0.00000   0.00000   0.00000   0.00000   0.00000   0.00000
    D3        0.00000   0.00000   0.00000   0.00000   0.00000   0.00000
    D4        0.00000   0.00000   0.00000   0.00000   0.00000   0.00000
    D5        0.00000   0.00000   0.00000   0.00000   0.00000   0.00000
         Item               Value     Threshold  Converged?
 Maximum Force            0.000003     0.000450     YES
 RMS     Force            0.000001     0.000300     YES
 Maximum Displacement     0.000047     0.001800     YES
 RMS     Displacement     0.000011     0.001200     YES
 Predicted change in Energy=-2.995510D-10
 Optimization completed.
    -- Stationary point found.
                           ----------------------------
                           !   Optimized Parameters   !
                           ! (Angstroms and Degrees)  !
 --------------------------                            --------------------------
 ! Name  Definition              Value          Derivative Info.                !
 --------------------------------------------------------------------------------
 ! R1    R(1,2)                  2.4546         -DE/DX =    0.0                 !
 ! R2    R(1,5)                  2.4548         -DE/DX =    0.0                 !
 ! R3    R(1,6)                  2.5502         -DE/DX =    0.0                 !
 ! R4    R(1,7)                  2.5502         -DE/DX =    0.0                 !
 ! R5    R(2,3)                  2.4546         -DE/DX =    0.0                 !
 ! R6    R(2,6)                  2.55           -DE/DX =    0.0                 !
 ! R7    R(2,7)                  2.55           -DE/DX =    0.0                 !
 ! R8    R(3,4)                  2.4548         -DE/DX =    0.0                 !
 ! R9    R(3,6)                  2.5502         -DE/DX =    0.0                 !
 ! R10   R(3,7)                  2.5502         -DE/DX =    0.0                 !
 ! R11   R(4,5)                  2.4549         -DE/DX =    0.0                 !
 ! R12   R(4,6)                  2.5503         -DE/DX =    0.0                 !
 ! R13   R(4,7)                  2.5503         -DE/DX =    0.0                 !
 ! R14   R(5,6)                  2.5503         -DE/DX =    0.0                 !
 ! R15   R(5,7)                  2.5503         -DE/DX =    0.0                 !
 ! R16   R(6,7)                  2.9279         -DE/DX =    0.0                 !
 ! A1    A(2,1,5)              107.9995         -DE/DX =    0.0                 !
 ! A2    A(1,2,3)              108.007          -DE/DX =    0.0                 !
 ! A3    A(2,3,4)              107.9995         -DE/DX =    0.0                 !
 ! A4    A(3,4,5)              107.997          -DE/DX =    0.0                 !
 ! A5    A(1,5,4)              107.997          -DE/DX =    0.0                 !
 ! A6    A(1,6,3)              102.2889         -DE/DX =    0.0                 !
 ! A7    A(1,6,4)              102.2917         -DE/DX =    0.0                 !
 ! A8    A(2,6,4)              102.2887         -DE/DX =    0.0                 !
 ! A9    A(2,6,5)              102.2887         -DE/DX =    0.0                 !
 ! A10   A(3,6,5)              102.2917         -DE/DX =    0.0                 !
 ! A11   A(1,7,3)              102.2889         -DE/DX =    0.0                 !
 ! A12   A(1,7,4)              102.2917         -DE/DX =    0.0                 !
 ! A13   A(2,7,4)              102.2887         -DE/DX =    0.0                 !
 ! A14   A(2,7,5)              102.2887         -DE/DX =    0.0                 !
 ! A15   A(3,7,5)              102.2917         -DE/DX =    0.0                 !
 ! D1    D(5,1,2,3)              0.0            -DE/DX =    0.0                 !
 ! D2    D(2,1,5,4)              0.0            -DE/DX =    0.0                 !
 ! D3    D(1,2,3,4)              0.0            -DE/DX =    0.0                 !
 ! D4    D(2,3,4,5)              0.0            -DE/DX =    0.0                 !
 ! D5    D(3,4,5,1)              0.0            -DE/DX =    0.0                 !
 --------------------------------------------------------------------------------
 GradGradGradGradGradGradGradGradGradGradGradGradGradGradGradGradGradGrad

 1\1\GINC-NODE33\Freq\UB3LYP\6-311+G(d)\Si7(1-,2)\TAM\09-Nov-2010\0\\#N
  Geom=AllCheck Guess=Read SCRF=Check GenChk UB3LYP/6-311+G(d) Freq\\si
 7li-an-doublet-isomer01\\-1,2\Si,1.9858993471,0.6453271807,-0.00000000
 52\Si,-0.0000000008,2.087981297,-0.0000000052\Si,-1.9858993486,0.64532
 71804,-0.0000000052\Si,-1.2274519993,-1.689350742,-0.0000000052\Si,1.2
 274519982,-1.6893507418,-0.0000000052\Si,-0.0000000007,0.0000329128,-1
 .4639674816\Si,-0.0000000007,0.0000329128,1.4639674713\\Version=AM64L-
 G03RevE.01\State=2-A"\HF=-2026.6287964\S2=0.754661\S2-1=0.\S2A=0.75000
 8\RMSD=1.623e-09\RMSF=1.995e-06\ZeroPoint=0.0097708\Thermal=0.0192739\
 Dipole=0.0000002,-0.0001469,0.\DipoleDeriv=-0.0341594,0.0448023,0.,0.0
 447731,-0.1571417,0.,0.,0.,-0.1724802,-0.1716995,0.,0.,0.,-0.0196663,0
 .,0.,0.,-0.1724488,-0.0341595,-0.0448023,0.,-0.0447731,-0.1571417,0.,0
 .,0.,-0.1724803,-0.1190792,0.0723847,0.,0.0724405,-0.0721236,0.,0.,0.,
 -0.1723873,-0.1190791,-0.0723848,0.,-0.0724405,-0.0721234,0.,0.,0.,-0.
 1723872,-0.2609116,0.,0.,0.,-0.2609017,0.0001648,0.,0.0000462,-0.06890
 81,-0.2609116,0.,0.,0.,-0.2609017,-0.0001648,0.,-0.0000462,-0.0689081\
 Polar=279.1560617,-0.0000003,279.1245456,-0.0000001,-0.0000003,210.170
 4252\PG=CS [SG(Si5),X(Si2)]\NImag=0\\0.10365096,0.01558204,0.06080796,
 0.,0.,0.02819676,-0.03019505,0.01398520,0.,0.05580020,0.01238659,-0.02
 157528,0.,0.,0.10858793,0.,0.,-0.00433264,0.,0.,0.02826386,-0.01203676
 ,0.00308841,0.,-0.03019505,-0.01238659,0.,0.10365096,-0.00308841,0.002
 55453,0.,-0.01398520,-0.02157527,0.,-0.01558204,0.06080796,0.,0.,-0.00
 000726,0.,0.,-0.00433264,0.,0.,0.02819676,-0.00698730,-0.01003500,0.,0
 .00116544,-0.00119809,0.,-0.01465655,0.00892334,0.,0.07402925,-0.00384
 805,-0.00247839,0.,-0.00738256,-0.01063937,0.,0.00724118,-0.03704233,0
 .,0.02533095,0.09054548,0.,0.,-0.00000674,0.,0.,-0.00000687,0.,0.,-0.0
 0432743,0.,0.,0.02811692,-0.01465656,-0.00892334,0.,0.00116544,0.00119
 809,0.,-0.00698730,0.01003500,0.,-0.03957816,0.00083818,0.,0.07402925,
 -0.00724118,-0.03704233,0.,0.00738256,-0.01063937,0.,0.00384805,-0.002
 47839,0.,-0.00083818,-0.01202333,0.,-0.02533095,0.09054549,0.,0.,-0.00
 432743,0.,0.,-0.00000687,0.,0.,-0.00000674,0.,0.,-0.00431010,0.,0.,0.0
 2811692,-0.01988765,-0.00684865,-0.01733001,0.00112951,0.,0.,-0.019887
 65,0.00684865,0.01733001,-0.00698634,-0.01108985,0.01072912,-0.0069863
 4,0.01108985,-0.01072912,0.05876540,-0.00689549,-0.00113324,-0.0056346
 7,0.,-0.02207932,-0.01823263,0.00689549,-0.00113324,-0.00563467,-0.011
 09151,-0.01418103,0.01475212,0.01109151,-0.01418103,0.01475213,0.,0.05
 880665,-0.00969160,-0.00311718,-0.00976134,0.,-0.01020740,-0.00979242,
 0.00969160,-0.00311718,-0.00976134,0.00599167,0.00823793,-0.00973289,-
 0.00599167,0.00823793,-0.00973289,0.,-0.00001818,0.08464880,-0.0198876
 5,-0.00684865,0.01733001,0.00112951,0.,0.,-0.01988765,0.00684865,-0.01
 733001,-0.00698634,-0.01108985,-0.01072912,-0.00698634,0.01108985,0.01
 072912,-0.00614694,0.,0.,0.05876540,-0.00689549,-0.00113324,0.00563467
 ,0.,-0.02207932,0.01823263,0.00689549,-0.00113324,0.00563467,-0.011091
 51,-0.01418103,-0.01475212,0.01109151,-0.01418103,-0.01475213,0.,-0.00
 609877,-0.00001591,0.,0.05880665,0.00969160,0.00311718,-0.00976134,0.,
 0.01020740,-0.00979242,-0.00969160,0.00311718,-0.00976134,-0.00599167,
 -0.00823793,-0.00973289,0.00599167,-0.00823793,-0.00973289,0.,0.000015
 91,-0.03586792,0.,0.00001818,0.08464880\\-0.00000154,-0.00000050,0.,0.
 ,-0.00000162,0.,0.00000154,-0.00000050,0.,0.00000094,0.00000133,0.,-0.
 00000094,0.00000133,0.,0.,-0.00000002,0.00000593,0.,-0.00000002,-0.000
 00593\\\@


 IT MATTERS NOT HOW DEEP YOU PLOW,
 BUT HOW LONG YOU STAY IN THE FURROW.
 Job cpu time:  0 days  0 hours 30 minutes 10.6 seconds.
 File lengths (MBytes):  RWF=    135 Int=      0 D2E=      0 Chk=      9 Scr=      1
 Normal termination of Gaussian 03 at Tue Nov  9 14:03:30 2010.
