 Entering Gaussian System, Link 0=g03
 Initial command:
 /usr/local/chem/g03E01/l1.exe /temp0/tam/Gau-28235.inp -scrdir=/temp0/tam/
 Entering Link 1 = /usr/local/chem/g03E01/l1.exe PID=     28236.
  
 Copyright (c) 1988,1990,1992,1993,1995,1998,2003,2004,2007, Gaussian, Inc.
                  All Rights Reserved.
  
 This is the Gaussian(R) 03 program.  It is based on the
 the Gaussian(R) 98 system (copyright 1998, Gaussian, Inc.),
 the Gaussian(R) 94 system (copyright 1995, Gaussian, Inc.),
 the Gaussian 92(TM) system (copyright 1992, Gaussian, Inc.),
 the Gaussian 90(TM) system (copyright 1990, Gaussian, Inc.),
 the Gaussian 88(TM) system (copyright 1988, Gaussian, Inc.),
 the Gaussian 86(TM) system (copyright 1986, Carnegie Mellon
 University), and the Gaussian 82(TM) system (copyright 1983,
 Carnegie Mellon University). Gaussian is a federally registered
 trademark of Gaussian, Inc.
  
 This software contains proprietary and confidential information,
 including trade secrets, belonging to Gaussian, Inc.
  
 This software is provided under written license and may be
 used, copied, transmitted, or stored only in accord with that
 written license.
  
 The following legend is applicable only to US Government
 contracts under FAR:
  
                    RESTRICTED RIGHTS LEGEND
  
 Use, reproduction and disclosure by the US Government is
 subject to restrictions as set forth in subparagraphs (a)
 and (c) of the Commercial Computer Software - Restricted
 Rights clause in FAR 52.227-19.
  
 Gaussian, Inc.
 340 Quinnipiac St., Bldg. 40, Wallingford CT 06492
  
  
 ---------------------------------------------------------------
 Warning -- This program may not be used in any manner that
 competes with the business of Gaussian, Inc. or will provide
 assistance to any competitor of Gaussian, Inc.  The licensee
 of this program is prohibited from giving any competitor of
 Gaussian, Inc. access to this program.  By using this program,
 the user acknowledges that Gaussian, Inc. is engaged in the
 business of creating and licensing software in the field of
 computational chemistry and represents and warrants to the
 licensee that it is not a competitor of Gaussian, Inc. and that
 it will not use this program in any manner prohibited above.
 ---------------------------------------------------------------
  

 Cite this work as:
 Gaussian 03, Revision E.01,
 M. J. Frisch, G. W. Trucks, H. B. Schlegel, G. E. Scuseria, 
 M. A. Robb, J. R. Cheeseman, J. A. Montgomery, Jr., T. Vreven, 
 K. N. Kudin, J. C. Burant, J. M. Millam, S. S. Iyengar, J. Tomasi, 
 V. Barone, B. Mennucci, M. Cossi, G. Scalmani, N. Rega, 
 G. A. Petersson, H. Nakatsuji, M. Hada, M. Ehara, K. Toyota, 
 R. Fukuda, J. Hasegawa, M. Ishida, T. Nakajima, Y. Honda, O. Kitao, 
 H. Nakai, M. Klene, X. Li, J. E. Knox, H. P. Hratchian, J. B. Cross, 
 V. Bakken, C. Adamo, J. Jaramillo, R. Gomperts, R. E. Stratmann, 
 O. Yazyev, A. J. Austin, R. Cammi, C. Pomelli, J. W. Ochterski, 
 P. Y. Ayala, K. Morokuma, G. A. Voth, P. Salvador, J. J. Dannenberg, 
 V. G. Zakrzewski, S. Dapprich, A. D. Daniels, M. C. Strain, 
 O. Farkas, D. K. Malick, A. D. Rabuck, K. Raghavachari, 
 J. B. Foresman, J. V. Ortiz, Q. Cui, A. G. Baboul, S. Clifford, 
 J. Cioslowski, B. B. Stefanov, G. Liu, A. Liashenko, P. Piskorz, 
 I. Komaromi, R. L. Martin, D. J. Fox, T. Keith, M. A. Al-Laham, 
 C. Y. Peng, A. Nanayakkara, M. Challacombe, P. M. W. Gill, 
 B. Johnson, W. Chen, M. W. Wong, C. Gonzalez, and J. A. Pople, 
 Gaussian, Inc., Wallingford CT, 2004.
 
 ******************************************
 Gaussian 03:  AM64L-G03RevE.01 11-Sep-2007
                17-Jun-2011 
 ******************************************
 %NprocShared=4
 Will use up to    4 processors via shared memory.
 %mem=3750MB
 %chk=S9L-ne-d-01
 --------------------------------------
 # hf/6-311G(d) freq scfcyc=500 scf=xqc
 --------------------------------------
 1/10=4,30=1,38=1/1,3;
 2/17=6,18=5,40=1/2;
 3/5=4,6=6,7=1,11=9,16=1,25=1,30=1/1,2,3;
 4//1;
 5/5=2,7=500,8=3,13=1,38=5/2,8;
 8/6=4,10=90,11=11/1;
 10/13=10/2;
 11/6=2,8=1,9=11,15=111,16=1/1,2,10;
 10/6=1/2;
 6/7=2,8=2,9=2,10=2,18=1,28=1/1;
 7/8=1,10=1,25=1/1,2,3,16;
 1/10=4,30=1/3;
 99//99;
 -----
 si7-c
 -----
 Symbolic Z-matrix:
 Charge =  1 Multiplicity = 2
 Si                    0.        2.0298    0.65947 
 Si                    0.        0.        2.13434 
 Si                    0.       -2.0298    0.65947 
 Si                    0.       -1.25451  -1.72676 
 Si                    0.        1.25451  -1.72676 
 Si                   -1.28922   0.        0.00012 
 Si                    1.28922   0.        0.00012 
 

 GradGradGradGradGradGradGradGradGradGradGradGradGradGradGradGradGradGrad
 Berny optimization.
 Initialization pass.
 Trust Radius=3.00D-01 FncErr=1.00D-07 GrdErr=1.00D-07
 Number of steps in this run=   2 maximum allowed number of steps=   2.
 GradGradGradGradGradGradGradGradGradGradGradGradGradGradGradGradGradGrad

                          Input orientation:                          
 ---------------------------------------------------------------------
 Center     Atomic     Atomic              Coordinates (Angstroms)
 Number     Number      Type              X           Y           Z
 ---------------------------------------------------------------------
    1         14             0        0.000000    2.029803    0.659468
    2         14             0        0.000000    0.000000    2.134340
    3         14             0        0.000000   -2.029803    0.659468
    4         14             0        0.000000   -1.254513   -1.726762
    5         14             0        0.000000    1.254513   -1.726762
    6         14             0       -1.289223    0.000000    0.000123
    7         14             0        1.289223    0.000000    0.000123
 ---------------------------------------------------------------------
                    Distance matrix (angstroms):
                    1          2          3          4          5
     1  Si   0.000000
     2  Si   2.509053   0.000000
     3  Si   4.059606   2.509053   0.000000
     4  Si   4.059658   4.059792   2.509017   0.000000
     5  Si   2.509017   4.059792   4.059658   2.509026   0.000000
     6  Si   2.493378   2.493387   2.493378   2.493598   2.493598
     7  Si   2.493378   2.493387   2.493378   2.493598   2.493598
                    6          7
     6  Si   0.000000
     7  Si   2.578446   0.000000
 Stoichiometry    Si7(1+,2)
 Framework group  C2V[C2(Si),SGV(Si4),SGV'(Si2)]
 Deg. of freedom     6
 Full point group                 C2V
 Largest Abelian subgroup         C2V     NOp   4
 Largest concise Abelian subgroup C2V     NOp   4
                         Standard orientation:                         
 ---------------------------------------------------------------------
 Center     Atomic     Atomic              Coordinates (Angstroms)
 Number     Number      Type              X           Y           Z
 ---------------------------------------------------------------------
    1         14             0        0.000000    2.029803    0.659468
    2         14             0        0.000000    0.000000    2.134340
    3         14             0        0.000000   -2.029803    0.659468
    4         14             0        0.000000   -1.254513   -1.726762
    5         14             0        0.000000    1.254513   -1.726762
    6         14             0       -1.289223    0.000000    0.000123
    7         14             0        1.289223    0.000000    0.000123
 ---------------------------------------------------------------------
 Rotational constants (GHZ):      1.2278505      1.2277828      0.7931067
 Standard basis: 6-311G(d) (5D, 7F)
 There are    70 symmetry adapted basis functions of A1  symmetry.
 There are    22 symmetry adapted basis functions of A2  symmetry.
 There are    39 symmetry adapted basis functions of B1  symmetry.
 There are    51 symmetry adapted basis functions of B2  symmetry.
 Integral buffers will be    131072 words long.
 Raffenetti 2 integral format.
 Two-electron integral symmetry is turned on.
   182 basis functions,   322 primitive gaussians,   189 cartesian basis functions
    49 alpha electrons       48 beta electrons
       nuclear repulsion energy       790.6195566402 Hartrees.
 NAtoms=    7 NActive=    7 NUniq=    4 SFac= 2.30D+00 NAtFMM=   80 NAOKFM=F Big=F
 One-electron integrals computed using PRISM.
 NBasis=   182 RedAO= T  NBF=    70    22    39    51
 NBsUse=   182 1.00D-06 NBFU=    70    22    39    51
 Harris functional with IExCor=  205 diagonalized for initial guess.
 ExpMin= 6.54D-02 ExpMax= 6.94D+04 ExpMxC= 2.33D+03 IAcc=2 IRadAn=         4 AccDes= 0.00D+00
 HarFok:  IExCor= 205 AccDes= 0.00D+00 IRadAn=         4 IDoV=1
 ScaDFX=  1.000000  1.000000  1.000000  1.000000
 Initial guess orbital symmetries:
 Alpha Orbitals:
       Occupied  (A1) (B1) (B2) (A1) (A1) (B2) (A1) (A1) (B1) (B2)
                 (A1) (A1) (B2) (A1) (A1) (B1) (B2) (A1) (A2) (B1)
                 (A1) (B2) (A1) (A1) (B2) (B2) (A1) (A1) (B2) (B2)
                 (B1) (A2) (B1) (B1) (A2) (A1) (B2) (A1) (B1) (A1)
                 (B2) (A1) (A2) (B1) (A1) (A1) (B2) (B2) (A1)
       Virtual   (B1) (B1) (A2) (B2) (A1) (B1) (A1) (A1) (B2) (B2)
                 (A1) (B1) (A2) (B2) (A1) (B2) (A1) (A1) (B2) (A2)
                 (B1) (A1) (B2) (A1) (B1) (B1) (A2) (A1) (B2) (B1)
                 (A1) (B2) (B1) (A2) (A1) (B2) (A2) (B1) (A1) (A1)
                 (B2) (B1) (B2) (A1) (B2) (A1) (B1) (A2) (A1) (B2)
                 (B1) (A2) (B2) (A1) (A1) (A1) (B2) (A2) (B1) (A2)
                 (A1) (B1) (A1) (B2) (A1) (B1) (B2) (A1) (A2) (B1)
                 (B1) (A2) (A1) (B2) (A1) (B2) (B2) (B1) (A2) (B1)
                 (B2) (A1) (A2) (B1) (B2) (A1) (A1) (A1) (B2) (B2)
                 (A1) (B1) (A2) (B2) (A1) (B2) (A1) (B1) (A1) (A1)
                 (B2) (B1) (A1) (B2) (A1) (B2) (A1) (B1) (A2) (B1)
                 (B1) (A2) (B2) (A1) (B2) (B2) (A1) (A1) (A2) (B1)
                 (A1) (B2) (B1) (A1) (B2) (A1) (A1) (A1) (B2) (B1)
                 (A1) (B2) (A1)
 Beta  Orbitals:
       Occupied  (A1) (B1) (B2) (A1) (A1) (B2) (A1) (A1) (B1) (B2)
                 (A1) (A1) (B2) (A1) (A1) (B1) (B2) (A1) (A2) (B1)
                 (A1) (B2) (A1) (A1) (B2) (B2) (A1) (A1) (B2) (B2)
                 (B1) (A2) (B1) (B1) (A2) (A1) (B2) (A1) (B1) (A1)
                 (B2) (A1) (A2) (B1) (A1) (A1) (B2) (B2)
       Virtual   (A1) (B1) (B1) (A2) (B2) (A1) (B1) (A1) (A1) (B2)
                 (B2) (A1) (B1) (A2) (B2) (A1) (B2) (A1) (A1) (B2)
                 (A2) (B1) (A1) (B2) (A1) (B1) (B1) (A2) (A1) (B2)
                 (B1) (A1) (B2) (B1) (A2) (A1) (B2) (A2) (B1) (A1)
                 (A1) (B2) (B1) (B2) (A1) (B2) (A1) (B1) (A2) (A1)
                 (B2) (B1) (A2) (B2) (A1) (A1) (A1) (B2) (A2) (B1)
                 (A2) (A1) (B1) (A1) (B2) (A1) (B1) (B2) (A1) (A2)
                 (B1) (B1) (A2) (A1) (B2) (A1) (B2) (B2) (B1) (A2)
                 (B1) (B2) (A1) (A2) (B1) (B2) (A1) (A1) (A1) (B2)
                 (B2) (A1) (B1) (A2) (B2) (A1) (B2) (A1) (B1) (A1)
                 (A1) (B2) (B1) (A1) (B2) (A1) (B2) (A1) (B1) (A2)
                 (B1) (B1) (A2) (B2) (A1) (B2) (B2) (A1) (A1) (A2)
                 (B1) (A1) (B2) (B1) (A1) (B2) (A1) (A1) (A1) (B2)
                 (B1) (A1) (B2) (A1)
 The electronic state of the initial guess is 2-A1.
 <S**2> of initial guess= 0.7500
 Requested convergence on RMS density matrix=1.00D-08 within 128 cycles.
 Requested convergence on MAX density matrix=1.00D-06.
 Requested convergence on             energy=1.00D-06.
 No special actions if energy rises.
 Keep R1 and R2 integrals in memory in canonical form, NReq=   326794593.
 Restarting incremental Fock formation.
 SCF Done:  E(UHF) =  -2022.13878250     A.U. after   24 cycles
             Convg  =    0.6426D-08             -V/T =  2.0000
             S**2   =   0.8353
 Annihilation of the first spin contaminant:
 S**2 before annihilation     0.8353,   after     0.7563
 QCSCF skips out because SCF is already converged.
 Range of M.O.s used for correlation:     1   182
 NBasis=   182 NAE=    49 NBE=    48 NFC=     0 NFV=     0
 NROrb=    182 NOA=    49 NOB=    48 NVA=   133 NVB=   134
          Differentiating once with respect to electric field.
                with respect to dipole field.
          Electric field/nuclear overlap derivatives assumed to be zero.
          Store integrals in memory, NReq=   323221955.
          There are   3 degrees of freedom in the 1st order CPHF.
     3 vectors were produced by pass  0.
 AX will form   3 AO Fock derivatives at one time.
     3 vectors were produced by pass  1.
     3 vectors were produced by pass  2.
     3 vectors were produced by pass  3.
     3 vectors were produced by pass  4.
     3 vectors were produced by pass  5.
     3 vectors were produced by pass  6.
     3 vectors were produced by pass  7.
     3 vectors were produced by pass  8.
     3 vectors were produced by pass  9.
     3 vectors were produced by pass 10.
     3 vectors were produced by pass 11.
     3 vectors were produced by pass 12.
     3 vectors were produced by pass 13.
     3 vectors were produced by pass 14.
     2 vectors were produced by pass 15.
 Inv2:  IOpt= 1 Iter= 1 AM= 3.06D-14 Conv= 1.00D-12.
 Inverted reduced A of dimension   47 with in-core refinement.
 End of Minotr Frequency-dependent properties file   721 does not exist.
 Symmetrizing basis deriv contribution to polar:
 IMax=3 JMax=2 DiffMx= 0.00D+00
 G2DrvN: will do    8 centers at a time, making    1 passes doing MaxLOS=2.
 FoFDir/FoFCou used for L=0 through L=2.
 DoAtom=TTTTTTT
          Differentiating once with respect to electric field.
                with respect to dipole field.
          Differentiating once with respect to nuclear coordinates.
          Store integrals in memory, NReq=   323222102.
          There are  15 degrees of freedom in the 1st order CPHF.
    15 vectors were produced by pass  0.
 AX will form  15 AO Fock derivatives at one time.
    15 vectors were produced by pass  1.
    15 vectors were produced by pass  2.
    15 vectors were produced by pass  3.
    15 vectors were produced by pass  4.
    15 vectors were produced by pass  5.
    15 vectors were produced by pass  6.
    15 vectors were produced by pass  7.
    15 vectors were produced by pass  8.
    15 vectors were produced by pass  9.
     6 vectors were produced by pass 10.
     3 vectors were produced by pass 11.
     3 vectors were produced by pass 12.
 Inv2:  IOpt= 1 Iter= 1 AM= 1.39D-13 Conv= 1.00D-12.
 Inverted reduced A of dimension  162 with in-core refinement.
 Isotropic polarizability for W=    0.000000      201.42 Bohr**3.
 End of Minotr Frequency-dependent properties file   721 does not exist.

 **********************************************************************

            Population analysis using the SCF density.

 **********************************************************************

 Orbital symmetries:
 Alpha Orbitals:
       Occupied  (A1) (B2) (B2) (A1) (A1) (A1) (B1) (A1) (B2) (B2)
                 (A1) (A1) (A1) (B1) (A1) (B2) (A1) (B2) (B1) (A1)
                 (A2) (B2) (B1) (A2) (A1) (B2) (A1) (B1) (B2) (A1)
                 (B1) (A1) (B1) (B2) (A2) (A1) (B2) (A1) (B1) (B2)
                 (A1) (A1) (A2) (B1) (A1) (B2) (A1) (A1) (B2)
       Virtual   (B1) (A2) (B1) (A1) (B2) (B1) (A1) (B2) (A1) (A1)
                 (B2) (A2) (B1) (B2) (A1) (A1) (B2) (A1) (B2) (A2)
                 (B1) (A1) (B2) (A1) (B1) (A2) (B1) (B2) (A1) (B1)
                 (A1) (B2) (A2) (B1) (B2) (A1) (B2) (A1) (B1) (A2)
                 (A1) (B1) (B2) (A1) (A1) (B2) (B2) (A1) (A2) (B1)
                 (B1) (A2) (B2) (A1) (A1) (B2) (A1) (B1) (A2) (A1)
                 (A2) (A1) (B1) (B2) (B1) (A1) (B2) (A1) (B2) (A1)
                 (A2) (B1) (A2) (B1) (B2) (A1) (B2) (A2) (B1) (B1)
                 (A1) (B2) (A2) (B1) (A1) (B2) (A1) (B2) (A1) (B2)
                 (A1) (B2) (A2) (B1) (B2) (A1) (A1) (B1) (A1) (B2)
                 (A1) (B1) (B2) (A1) (A1) (A2) (B1) (B2) (A1) (B1)
                 (A2) (B1) (B2) (A1) (B2) (A1) (B2) (A1) (A1) (B2)
                 (B1) (A2) (B1) (B2) (A1) (A1) (A1) (B2) (A1) (B1)
                 (B2) (A1) (A1)
 Beta  Orbitals:
       Occupied  (A1) (B2) (B2) (A1) (A1) (A1) (B1) (A1) (B2) (B2)
                 (A1) (A1) (A1) (B1) (A1) (B2) (B1) (A2) (A2) (B1)
                 (B2) (A1) (A1) (B2) (A1) (B2) (B2) (B1) (A1) (A1)
                 (B1) (B2) (A2) (A1) (B1) (A1) (B2) (A1) (B1) (A1)
                 (B2) (A1) (A2) (B1) (A1) (B2) (A1) (B2)
       Virtual   (A1) (B1) (A2) (B1) (B2) (B1) (A1) (B2) (A1) (A1)
                 (B2) (A1) (A2) (B1) (A1) (B2) (A1) (B2) (B2) (A2)
                 (B1) (A1) (B2) (A1) (A1) (B1) (A2) (B1) (B2) (A1)
                 (B1) (A2) (B1) (B2) (A1) (B2) (A1) (B2) (A1) (A2)
                 (B1) (A1) (B1) (B2) (A1) (B2) (A1) (B2) (A1) (A2)
                 (B1) (A1) (A2) (B1) (B2) (A1) (B2) (A1) (B1) (A2)
                 (A1) (A2) (A1) (B1) (B1) (B2) (A1) (A1) (B2) (B2)
                 (A1) (A2) (B1) (A2) (B1) (B2) (A1) (B2) (A2) (B1)
                 (B1) (A2) (A1) (B2) (B1) (A1) (B2) (A1) (B2) (A1)
                 (B2) (B2) (A1) (A2) (B1) (B2) (A1) (A1) (B1) (A1)
                 (B2) (A1) (B1) (B2) (A1) (A1) (A2) (B1) (A1) (B2)
                 (B1) (A2) (B1) (B2) (A1) (B2) (A1) (B2) (A1) (B2)
                 (A1) (A2) (B1) (B1) (B2) (A1) (A1) (A1) (B2) (A1)
                 (B1) (B2) (A1) (A1)
 The electronic state is 2-A1.
 Alpha  occ. eigenvalues --  -69.00323 -69.00323 -69.00031 -69.00030 -68.98800
 Alpha  occ. eigenvalues --  -68.96701 -68.96701  -6.34604  -6.34596  -6.34284
 Alpha  occ. eigenvalues --   -6.34282  -6.33088  -6.31424  -6.31416  -4.45094
 Alpha  occ. eigenvalues --   -4.45063  -4.44655  -4.44655  -4.44577  -4.44574
 Alpha  occ. eigenvalues --   -4.44574  -4.44567  -4.44355  -4.44354  -4.44306
 Alpha  occ. eigenvalues --   -4.44306  -4.43396  -4.43225  -4.43030  -4.41868
 Alpha  occ. eigenvalues --   -4.41843  -4.41713  -4.41711  -4.41701  -4.41698
 Alpha  occ. eigenvalues --   -1.08500  -0.90268  -0.90002  -0.77265  -0.69614
 Alpha  occ. eigenvalues --   -0.68845  -0.66943  -0.51878  -0.51776  -0.50574
 Alpha  occ. eigenvalues --   -0.50216  -0.49083  -0.48563  -0.46485
 Alpha virt. eigenvalues --   -0.17196  -0.13870  -0.13380  -0.11126  -0.10999
 Alpha virt. eigenvalues --   -0.08497  -0.08183  -0.07981  -0.07611  -0.04721
 Alpha virt. eigenvalues --   -0.04697  -0.01237  -0.01018   0.05536   0.05603
 Alpha virt. eigenvalues --    0.05800   0.06693   0.08626   0.09305   0.10057
 Alpha virt. eigenvalues --    0.10164   0.12914   0.12995   0.13355   0.15191
 Alpha virt. eigenvalues --    0.16564   0.16693   0.19207   0.19236   0.19962
 Alpha virt. eigenvalues --    0.23586   0.23598   0.24158   0.24316   0.29356
 Alpha virt. eigenvalues --    0.34809   0.40032   0.40589   0.41476   0.42779
 Alpha virt. eigenvalues --    0.42994   0.48742   0.51321   0.51635   0.53145
 Alpha virt. eigenvalues --    0.54420   0.55500   0.55618   0.56551   0.56620
 Alpha virt. eigenvalues --    0.60765   0.61093   0.61224   0.61262   0.61729
 Alpha virt. eigenvalues --    0.67458   0.67579   0.70218   0.70340   0.74522
 Alpha virt. eigenvalues --    0.75577   0.85986   0.88071   0.88608   0.88627
 Alpha virt. eigenvalues --    0.88655   0.89231   0.89511   0.91245   0.91830
 Alpha virt. eigenvalues --    0.92503   0.92661   0.93640   0.93784   0.94032
 Alpha virt. eigenvalues --    0.94258   0.95342   1.24226   1.24500   1.25494
 Alpha virt. eigenvalues --    1.30587   1.31011   1.31334   1.31513   1.35194
 Alpha virt. eigenvalues --    1.35431   1.46188   1.46442   1.46597   1.49100
 Alpha virt. eigenvalues --    1.50346   1.50669   1.52165   1.52234   1.62225
 Alpha virt. eigenvalues --    1.62490   1.69889   1.71641   5.59200   5.66251
 Alpha virt. eigenvalues --    5.66898   5.71576   5.73368   5.73801   5.94151
 Alpha virt. eigenvalues --   11.92704  11.92906  11.93125  11.93182  11.94103
 Alpha virt. eigenvalues --   11.95183  11.95892  11.96358  11.96490  11.99474
 Alpha virt. eigenvalues --   12.01374  12.01724  12.04543  12.07089  12.07667
 Alpha virt. eigenvalues --   12.09132  12.09135  12.13498  12.24190  12.24408
 Alpha virt. eigenvalues --   12.38111 143.35224 143.41977 143.42611 143.50046
 Alpha virt. eigenvalues --  143.51416 143.51870 143.78524
  Beta  occ. eigenvalues --  -69.00122 -69.00122 -68.99816 -68.99816 -68.98678
  Beta  occ. eigenvalues --  -68.96769 -68.96769  -6.34373  -6.34369  -6.33985
  Beta  occ. eigenvalues --   -6.33983  -6.32884  -6.31513  -6.31505  -4.44515
  Beta  occ. eigenvalues --   -4.44509  -4.44457  -4.44455  -4.44198  -4.44198
  Beta  occ. eigenvalues --   -4.44186  -4.44186  -4.44057  -4.44031  -4.43921
  Beta  occ. eigenvalues --   -4.43920  -4.43144  -4.43123  -4.42998  -4.41947
  Beta  occ. eigenvalues --   -4.41921  -4.41849  -4.41847  -4.41844  -4.41842
  Beta  occ. eigenvalues --   -1.08016  -0.88071  -0.88020  -0.77755  -0.65572
  Beta  occ. eigenvalues --   -0.64844  -0.64737  -0.52032  -0.51912  -0.48809
  Beta  occ. eigenvalues --   -0.47872  -0.47445  -0.46834
  Beta virt. eigenvalues --   -0.24451  -0.16749  -0.13130  -0.12697  -0.08642
  Beta virt. eigenvalues --   -0.08490  -0.08307  -0.06990  -0.06901  -0.06623
  Beta virt. eigenvalues --   -0.03881  -0.03836  -0.00983  -0.00868   0.05721
  Beta virt. eigenvalues --    0.05731   0.05967   0.08834   0.09398   0.10225
  Beta virt. eigenvalues --    0.10304   0.10380   0.13682   0.13914   0.14191
  Beta virt. eigenvalues --    0.15129   0.16552   0.16869   0.19768   0.19813
  Beta virt. eigenvalues --    0.20091   0.24235   0.24369   0.24482   0.24496
  Beta virt. eigenvalues --    0.30466   0.35388   0.40612   0.40885   0.42543
  Beta virt. eigenvalues --    0.43673   0.43987   0.48996   0.52734   0.52825
  Beta virt. eigenvalues --    0.55022   0.55543   0.55957   0.56079   0.57078
  Beta virt. eigenvalues --    0.57114   0.61545   0.61623   0.61759   0.62119
  Beta virt. eigenvalues --    0.62269   0.68161   0.68486   0.71020   0.71179
  Beta virt. eigenvalues --    0.74991   0.76451   0.86245   0.87940   0.88680
  Beta virt. eigenvalues --    0.89497   0.89879   0.90064   0.90098   0.92138
  Beta virt. eigenvalues --    0.92395   0.92479   0.92818   0.93641   0.93751
  Beta virt. eigenvalues --    0.94257   0.94329   0.96509   1.24597   1.24762
  Beta virt. eigenvalues --    1.25958   1.31585   1.31599   1.31802   1.31886
  Beta virt. eigenvalues --    1.35616   1.35731   1.46732   1.46768   1.47004
  Beta virt. eigenvalues --    1.49662   1.50890   1.51160   1.52181   1.52244
  Beta virt. eigenvalues --    1.62740   1.62914   1.69777   1.71661   5.59601
  Beta virt. eigenvalues --    5.66580   5.67255   5.71459   5.73791   5.74140
  Beta virt. eigenvalues --    5.94060  11.92815  11.92996  11.93381  11.93403
  Beta virt. eigenvalues --   11.94202  11.95295  11.95979  11.96712  11.96819
  Beta virt. eigenvalues --   11.99934  12.01613  12.01826  12.04733  12.07687
  Beta virt. eigenvalues --   12.07747  12.09022  12.09033  12.13451  12.24341
  Beta virt. eigenvalues --   12.24534  12.38118 143.35360 143.42106 143.42759
  Beta virt. eigenvalues --  143.49998 143.51573 143.51995 143.78484
          Condensed to atoms (all electrons):
              1          2          3          4          5          6
     1  Si  13.372869   0.171353  -0.022595  -0.015143   0.090450   0.055584
     2  Si   0.171353  13.397867   0.171353  -0.018647  -0.018647   0.034346
     3  Si  -0.022595   0.171353  13.372869   0.090450  -0.015143   0.055584
     4  Si  -0.015143  -0.018647   0.090450  13.416545   0.055098   0.067222
     5  Si   0.090450  -0.018647  -0.015143   0.055098  13.416545   0.067222
     6  Si   0.055584   0.034346   0.055584   0.067222   0.067222  14.120404
     7  Si   0.055584   0.034346   0.055584   0.067222   0.067222  -0.157199
              7
     1  Si   0.055584
     2  Si   0.034346
     3  Si   0.055584
     4  Si   0.067222
     5  Si   0.067222
     6  Si  -0.157199
     7  Si  14.120404
 Mulliken atomic charges:
              1
     1  Si   0.291896
     2  Si   0.228030
     3  Si   0.291896
     4  Si   0.337253
     5  Si   0.337253
     6  Si  -0.243164
     7  Si  -0.243164
 Sum of Mulliken charges=   1.00000
 Atomic charges with hydrogens summed into heavy atoms:
              1
     1  Si   0.291896
     2  Si   0.228030
     3  Si   0.291896
     4  Si   0.337253
     5  Si   0.337253
     6  Si  -0.243164
     7  Si  -0.243164
 Sum of Mulliken charges=   1.00000
          Atomic-Atomic Spin Densities.
              1          2          3          4          5          6
     1  Si   0.208322  -0.055497  -0.007371  -0.009118   0.056158   0.028010
     2  Si  -0.055497   0.093591  -0.055497  -0.004140  -0.004140   0.044098
     3  Si  -0.007371  -0.055497   0.208322   0.056158  -0.009118   0.028010
     4  Si  -0.009118  -0.004140   0.056158   0.179795   0.137822  -0.019048
     5  Si   0.056158  -0.004140  -0.009118   0.137822   0.179795  -0.019048
     6  Si   0.028010   0.044098   0.028010  -0.019048  -0.019048  -0.132592
     7  Si   0.028010   0.044098   0.028010  -0.019048  -0.019048  -0.031623
              7
     1  Si   0.028010
     2  Si   0.044098
     3  Si   0.028010
     4  Si  -0.019048
     5  Si  -0.019048
     6  Si  -0.031623
     7  Si  -0.132592
 Mulliken atomic spin densities:
              1
     1  Si   0.248514
     2  Si   0.062515
     3  Si   0.248514
     4  Si   0.322421
     5  Si   0.322421
     6  Si  -0.102193
     7  Si  -0.102193
 Sum of Mulliken spin densities=   1.00000
 APT atomic charges:
              1
     1  Si  -0.020233
     2  Si   0.324392
     3  Si  -0.020212
     4  Si   0.881240
     5  Si   0.881209
     6  Si  -0.523156
     7  Si  -0.523169
 Sum of APT charges=   1.00007
 APT Atomic charges with hydrogens summed into heavy atoms:
              1
     1  Si  -0.020233
     2  Si   0.324392
     3  Si  -0.020212
     4  Si   0.881240
     5  Si   0.881209
     6  Si  -0.523156
     7  Si  -0.523169
 Sum of APT charges=   1.00007
 Electronic spatial extent (au):  <R**2>=  1480.6506
 Charge=     1.0000 electrons
 Dipole moment (field-independent basis, Debye):
    X=     0.0000    Y=     0.0000    Z=     0.3610  Tot=     0.3610
 Quadrupole moment (field-independent basis, Debye-Ang):
   XX=   -83.8380   YY=   -75.0533   ZZ=   -77.5021
   XY=     0.0000   XZ=     0.0000   YZ=     0.0000
 Traceless Quadrupole moment (field-independent basis, Debye-Ang):
   XX=    -5.0402   YY=     3.7445   ZZ=     1.2957
   XY=     0.0000   XZ=     0.0000   YZ=     0.0000
 Octapole moment (field-independent basis, Debye-Ang**2):
  XXX=     0.0000  YYY=     0.0000  ZZZ=     6.3074  XYY=     0.0000
  XXY=     0.0000  XXZ=     0.5904  XZZ=     0.0000  YZZ=     0.0000
  YYZ=     3.0224  XYZ=     0.0000
 Hexadecapole moment (field-independent basis, Debye-Ang**3):
 XXXX=  -399.9078 YYYY=  -961.4325 ZZZZ=  -989.9469 XXXY=     0.0000
 XXXZ=     0.0000 YYYX=     0.0000 YYYZ=     0.0000 ZZZX=     0.0000
 ZZZY=     0.0000 XXYY=  -220.6962 XXZZ=  -221.9599 YYZZ=  -317.8154
 XXYZ=     0.0000 YYXZ=     0.0000 ZZXY=     0.0000
 N-N= 7.906195566402D+02 E-N=-6.389149313109D+03  KE= 2.022129124094D+03
 Symmetry A1   KE= 1.030929031645D+03
 Symmetry A2   KE= 7.514376802697D+01
 Symmetry B1   KE= 3.373888829798D+02
 Symmetry B2   KE= 5.786674414424D+02
  Exact polarizability: 149.392   0.000 238.114   0.000  -0.001 216.760
 Approx polarizability: 241.812   0.000 306.096   0.000   0.000 305.606
                          Isotropic Fermi Contact Couplings
        Atom                 a.u.       MegaHertz       Gauss      10(-4) cm-1
     1  Si(29)             0.25253    -224.42631     -80.08088     -74.86056
     2  Si(29)             0.30971    -275.25010     -98.21608     -91.81355
     3  Si(29)             0.25253    -224.42631     -80.08088     -74.86056
     4  Si(29)             0.00419      -3.72147      -1.32791      -1.24135
     5  Si(29)             0.00419      -3.72147      -1.32791      -1.24135
     6  Si(29)            -0.05027      44.67198      15.94007      14.90097
     7  Si(29)            -0.05027      44.67198      15.94007      14.90097
 --------------------------------------------------------
       Center         ----  Spin Dipole Couplings  ----
                      3XX-RR        3YY-RR        3ZZ-RR
 --------------------------------------------------------
     1   Atom       -0.215195     -0.064000      0.279195
     2   Atom       -0.037593     -0.281872      0.319464
     3   Atom       -0.215195     -0.064000      0.279195
     4   Atom       -0.336154      0.614769     -0.278615
     5   Atom       -0.336154      0.614769     -0.278615
     6   Atom        0.045046     -0.032303     -0.012743
     7   Atom        0.045046     -0.032303     -0.012743
 --------------------------------------------------------
                        XY            XZ            YZ
 --------------------------------------------------------
     1   Atom        0.000000      0.000000      0.315175
     2   Atom        0.000000      0.000000      0.000000
     3   Atom        0.000000      0.000000     -0.315175
     4   Atom        0.000000      0.000000     -0.362346
     5   Atom        0.000000      0.000000      0.362346
     6   Atom        0.000000      0.000440      0.000000
     7   Atom        0.000000     -0.000440      0.000000
 --------------------------------------------------------


 ---------------------------------------------------------------------------------
              Anisotropic Spin Dipole Couplings in Principal Axis System
 ---------------------------------------------------------------------------------

       Atom             a.u.   MegaHertz   Gauss  10(-4) cm-1        Axes

              Baa    -0.2513    26.655     9.511     8.891  0.0000  0.8597 -0.5108
     1 Si(29) Bbb    -0.2152    22.829     8.146     7.615  1.0000  0.0000  0.0000
              Bcc     0.4665   -49.484   -17.657   -16.506  0.0000  0.5108  0.8597
 
              Baa    -0.2819    29.902    10.670     9.974  0.0000  1.0000  0.0000
     2 Si(29) Bbb    -0.0376     3.988     1.423     1.330  1.0000  0.0000  0.0000
              Bcc     0.3195   -33.890   -12.093   -11.305  0.0000  0.0000  1.0000
 
              Baa    -0.2513    26.655     9.511     8.891  0.0000  0.8597  0.5108
     3 Si(29) Bbb    -0.2152    22.829     8.146     7.615  1.0000  0.0000  0.0000
              Bcc     0.4665   -49.484   -17.657   -16.506  0.0000 -0.5108  0.8597
 
              Baa    -0.4071    43.187    15.410    14.406  0.0000  0.3342  0.9425
     4 Si(29) Bbb    -0.3362    35.661    12.725    11.895  1.0000  0.0000  0.0000
              Bcc     0.7433   -78.847   -28.135   -26.301  0.0000  0.9425 -0.3342
 
              Baa    -0.4071    43.187    15.410    14.406  0.0000 -0.3342  0.9425
     5 Si(29) Bbb    -0.3362    35.661    12.725    11.895  1.0000  0.0000  0.0000
              Bcc     0.7433   -78.847   -28.135   -26.301  0.0000  0.9425  0.3342
 
              Baa    -0.0323     3.427     1.223     1.143  0.0000  1.0000  0.0000
     6 Si(29) Bbb    -0.0127     1.352     0.482     0.451 -0.0076  0.0000  1.0000
              Bcc     0.0450    -4.779    -1.705    -1.594  1.0000  0.0000  0.0076
 
              Baa    -0.0323     3.427     1.223     1.143  0.0000  1.0000  0.0000
     7 Si(29) Bbb    -0.0127     1.352     0.482     0.451  0.0076  0.0000  1.0000
              Bcc     0.0450    -4.779    -1.705    -1.594  1.0000  0.0000 -0.0076
 

 ---------------------------------------------------------------------------------

 Full mass-weighted force constant matrix:
 Low frequencies --- -510.6822 -201.1411  -72.3066  -35.1026   -0.0381   -0.0034
 Low frequencies ---    0.0038   35.5397   43.7080
 ******    3 imaginary frequencies (negative Signs) ****** 
 Diagonal vibrational polarizability:
        2.8769793      34.0075681      33.2953542
 Diagonal vibrational hyperpolarizability:
       -0.0001682       0.4365632     953.2070766
 Harmonic frequencies (cm**-1), IR intensities (KM/Mole), Raman scattering
 activities (A**4/AMU), depolarization ratios for plane and unpolarized
 incident light, reduced masses (AMU), force constants (mDyne/A),
 and normal coordinates:
                     1                      2                      3
                    B2                     A1                     A2
 Frequencies --  -510.6523              -201.1411               -63.7773
 Red. masses --    27.9769                27.9769                27.9769
 Frc consts  --     4.2983                 0.6669                 0.0670
 IR Inten    --   289.9057                35.3045                 0.0000
 Raman Activ --   245.1456              1727.3183                 0.1811
 Depolar (P) --     0.7500                 0.4480                 0.7500
 Depolar (U) --     0.8571                 0.6188                 0.8571
 Atom AN      X      Y      Z        X      Y      Z        X      Y      Z
   1  14     0.00  -0.36  -0.34     0.00  -0.11  -0.37     0.35   0.00   0.00
   2  14     0.00   0.35   0.00     0.00   0.00   0.60     0.00   0.00   0.00
   3  14     0.00  -0.36   0.34     0.00   0.11  -0.37    -0.35   0.00   0.00
   4  14     0.00   0.37  -0.15     0.00   0.26  -0.19     0.61   0.00   0.00
   5  14     0.00   0.37   0.15     0.00  -0.26  -0.19    -0.61   0.00   0.00
   6  14     0.00  -0.18   0.00    -0.04   0.00   0.26     0.00   0.05   0.00
   7  14     0.00  -0.18   0.00     0.04   0.00   0.26     0.00  -0.05   0.00
                     4                      5                      6
                    B1                     B1                     A1
 Frequencies --    76.5365               213.4936               224.4856
 Red. masses --    27.9769                27.9769                27.9769
 Frc consts  --     0.0966                 0.7513                 0.8307
 IR Inten    --     0.0011                 4.8644                 1.1567
 Raman Activ --     0.0093                 0.0266               173.6706
 Depolar (P) --     0.7500                 0.7500                 0.4982
 Depolar (U) --     0.8571                 0.8571                 0.6650
 Atom AN      X      Y      Z        X      Y      Z        X      Y      Z
   1  14     0.51   0.00   0.00     0.25   0.00   0.00     0.00  -0.09   0.43
   2  14    -0.61   0.00   0.00     0.25   0.00   0.00     0.00   0.00  -0.03
   3  14     0.51   0.00   0.00     0.25   0.00   0.00     0.00   0.09   0.43
   4  14    -0.22   0.00   0.00     0.22   0.00   0.00     0.00   0.45  -0.32
   5  14    -0.22   0.00   0.00     0.22   0.00   0.00     0.00  -0.45  -0.32
   6  14     0.01   0.00  -0.06    -0.60   0.00  -0.04     0.00   0.00  -0.09
   7  14     0.01   0.00   0.06    -0.60   0.00   0.04     0.00   0.00  -0.09
                     7                      8                      9
                    ?A                     ?A                     A2
 Frequencies --   290.5103               320.4103               334.6434
 Red. masses --    27.9769                27.9769                27.9769
 Frc consts  --     1.3911                 1.6922                 1.8459
 IR Inten    --     0.4220                 1.0671                 0.0000
 Raman Activ --   294.7250                 6.9408                12.8992
 Depolar (P) --     0.4196                 0.7500                 0.7500
 Depolar (U) --     0.5911                 0.8571                 0.8571
 Atom AN      X      Y      Z        X      Y      Z        X      Y      Z
   1  14     0.00   0.52  -0.11     0.00  -0.13   0.43    -0.32   0.00   0.00
   2  14     0.00   0.00  -0.38     0.00   0.59   0.00     0.00   0.00   0.00
   3  14     0.00  -0.52  -0.11     0.00  -0.13  -0.43     0.32   0.00   0.00
   4  14     0.00   0.26   0.02     0.00   0.03   0.30     0.13   0.00   0.00
   5  14     0.00  -0.26   0.02     0.00   0.03  -0.30    -0.13   0.00   0.00
   6  14     0.05   0.00   0.27     0.00  -0.19   0.00     0.00   0.62   0.00
   7  14    -0.05   0.00   0.27     0.00  -0.19   0.00     0.00  -0.62   0.00
                    10                     11                     12
                    B1                     A1                     B2
 Frequencies --   345.7393               350.2500               353.8509
 Red. masses --    27.9769                27.9769                27.9769
 Frc consts  --     1.9704                 2.0221                 2.0639
 IR Inten    --     0.0002                 0.4774                11.5251
 Raman Activ --     9.2142               135.4201                21.5219
 Depolar (P) --     0.7500                 0.4435                 0.7500
 Depolar (U) --     0.8571                 0.6145                 0.8571
 Atom AN      X      Y      Z        X      Y      Z        X      Y      Z
   1  14    -0.03   0.00   0.00     0.00   0.34   0.14     0.00   0.43   0.00
   2  14    -0.34   0.00   0.00     0.00   0.00   0.44     0.00   0.06   0.00
   3  14    -0.03   0.00   0.00     0.00  -0.34   0.14     0.00   0.43   0.00
   4  14     0.24   0.00   0.00     0.00  -0.27  -0.30     0.00   0.06  -0.20
   5  14     0.24   0.00   0.00     0.00   0.27  -0.30     0.00   0.06   0.20
   6  14    -0.04   0.00   0.62     0.32   0.00  -0.06     0.00  -0.52   0.00
   7  14    -0.04   0.00  -0.62    -0.32   0.00  -0.06     0.00  -0.52   0.00
                    13                     14                     15
                    A1                     A1                     B2
 Frequencies --   412.7813               436.0000               867.1331
 Red. masses --    27.9769                27.9769                27.9769
 Frc consts  --     2.8086                 3.1335                12.3943
 IR Inten    --    37.8744                21.0012                37.2258
 Raman Activ --   201.8716                54.0281              4633.9655
 Depolar (P) --     0.1718                 0.4254                 0.7500
 Depolar (U) --     0.2933                 0.5969                 0.8571
 Atom AN      X      Y      Z        X      Y      Z        X      Y      Z
   1  14     0.00  -0.29   0.01     0.00  -0.10  -0.10     0.00   0.06  -0.13
   2  14     0.00   0.00  -0.40     0.00   0.00   0.03     0.00  -0.44   0.00
   3  14     0.00   0.29   0.01     0.00   0.10  -0.10     0.00   0.06   0.13
   4  14     0.00  -0.18  -0.23     0.00   0.24   0.28     0.00   0.29   0.53
   5  14     0.00   0.18  -0.23     0.00  -0.24   0.28     0.00   0.29  -0.53
   6  14     0.29   0.00   0.41     0.56   0.00  -0.19     0.00  -0.14   0.00
   7  14    -0.29   0.00   0.41    -0.56   0.00  -0.19     0.00  -0.14   0.00

 -------------------
 - Thermochemistry -
 -------------------
 Temperature   298.150 Kelvin.  Pressure   1.00000 Atm.
 Atom  1 has atomic number 14 and mass  27.97693
 Atom  2 has atomic number 14 and mass  27.97693
 Atom  3 has atomic number 14 and mass  27.97693
 Atom  4 has atomic number 14 and mass  27.97693
 Atom  5 has atomic number 14 and mass  27.97693
 Atom  6 has atomic number 14 and mass  27.97693
 Atom  7 has atomic number 14 and mass  27.97693
 Molecular mass:   195.83850 amu.
 Principal axes and moments of inertia in atomic units:
                           1         2         3
     EIGENVALUES --  1469.837861469.918902275.53385
           X            0.00000   0.00000   1.00000
           Y            0.00000   1.00000   0.00000
           Z            1.00000   0.00000   0.00000
 This molecule is an asymmetric top.
 Rotational symmetry number  2.
 Warning -- assumption of classical behavior for rotation
           may cause significant error
 Rotational temperatures (Kelvin)      0.05893     0.05892     0.03806
 Rotational constants (GHZ):           1.22785     1.22778     0.79311
    3 imaginary frequencies ignored.
 Zero-point vibrational energy      25276.1 (Joules/Mol)
                                    6.04113 (Kcal/Mol)
 Warning -- explicit consideration of  11 degrees of freedom as
           vibrations may cause significant error
 Vibrational temperatures:    110.12   307.17   322.98   417.98   461.00
          (Kelvin)            481.48   497.44   503.93   509.11   593.90
                              627.31  1247.61
 
 Zero-point correction=                           0.009627 (Hartree/Particle)
 Thermal correction to Energy=                    0.017228
 Thermal correction to Enthalpy=                  0.018172
 Thermal correction to Gibbs Free Energy=        -0.024135
 Sum of electronic and zero-point Energies=          -2022.129155
 Sum of electronic and thermal Energies=             -2022.121555
 Sum of electronic and thermal Enthalpies=           -2022.120611
 Sum of electronic and thermal Free Energies=        -2022.162918
 
                     E (Thermal)             CV                S
                      KCal/Mol        Cal/Mol-Kelvin    Cal/Mol-Kelvin
 Total                   10.811             24.589             89.043
 Electronic               0.000              0.000              1.377
 Translational            0.889              2.981             41.722
 Rotational               0.889              2.981             28.599
 Vibrational              9.033             18.628             17.345
 Vibration  1             0.599              1.965              3.978
 Vibration  2             0.644              1.820              2.014
 Vibration  3             0.649              1.804              1.923
 Vibration  4             0.686              1.691              1.471
 Vibration  5             0.706              1.634              1.308
 Vibration  6             0.716              1.606              1.238
 Vibration  7             0.724              1.584              1.186
 Vibration  8             0.727              1.575              1.165
 Vibration  9             0.730              1.567              1.149
 Vibration 10             0.777              1.442              0.917
 Vibration 11             0.796              1.392              0.839
                       Q            Log10(Q)             Ln(Q)
 Total Bot       0.126302D+12         11.101411         25.561943
 Total V=0       0.338522D+16         15.529587         35.758195
 Vib (Bot)       0.147720D-02         -2.830561         -6.517608
 Vib (Bot)  1    0.269220D+01          0.430108          0.990360
 Vib (Bot)  2    0.929003D+00         -0.031983         -0.073643
 Vib (Bot)  3    0.879471D+00         -0.055779         -0.128435
 Vib (Bot)  4    0.658084D+00         -0.181719         -0.418423
 Vib (Bot)  5    0.586549D+00         -0.231696         -0.533499
 Vib (Bot)  6    0.556742D+00         -0.254346         -0.585653
 Vib (Bot)  7    0.535107D+00         -0.271559         -0.625288
 Vib (Bot)  8    0.526680D+00         -0.278453         -0.641162
 Vib (Bot)  9    0.520097D+00         -0.283916         -0.653740
 Vib (Bot) 10    0.427716D+00         -0.368844         -0.849295
 Vib (Bot) 11    0.397753D+00         -0.400387         -0.921925
 Vib (V=0)       0.395927D+02          1.597615          3.678645
 Vib (V=0)  1    0.323824D+01          0.510309          1.175030
 Vib (V=0)  2    0.155501D+01          0.191733          0.441482
 Vib (V=0)  3    0.151167D+01          0.179456          0.413213
 Vib (V=0)  4    0.132648D+01          0.122702          0.282531
 Vib (V=0)  5    0.127074D+01          0.104057          0.239599
 Vib (V=0)  6    0.124831D+01          0.096321          0.221788
 Vib (V=0)  7    0.123235D+01          0.090735          0.208925
 Vib (V=0)  8    0.122622D+01          0.088567          0.203934
 Vib (V=0)  9    0.122146D+01          0.086878          0.200045
 Vib (V=0) 10    0.115798D+01          0.063702          0.146679
 Vib (V=0) 11    0.113891D+01          0.056490          0.130073
 Electronic      0.200000D+01          0.301030          0.693147
 Translational   0.107721D+09          8.032302         18.495059
 Rotational      0.396862D+06          5.598639         12.891344
 ***** Axes restored to original set *****
 -------------------------------------------------------------------
 Center     Atomic                   Forces (Hartrees/Bohr)
 Number     Number              X              Y              Z
 -------------------------------------------------------------------
    1         14           0.000000000   -0.016676853    0.007957659
    2         14           0.000000000    0.000000000   -0.013533537
    3         14           0.000000000    0.016676853    0.007957659
    4         14           0.000000000   -0.007817296   -0.002871752
    5         14           0.000000000    0.007817296   -0.002871752
    6         14          -0.009382731    0.000000000    0.001680862
    7         14           0.009382731    0.000000000    0.001680862
 -------------------------------------------------------------------
 Cartesian Forces:  Max     0.016676853 RMS     0.007516573
 ------------------------------------------------------------------------
           Internal Coordinate Forces (Hartree/Bohr or radian)
 Cent Atom N1     Length/X     N2     Alpha/Y      N3      Beta/Z       J
 ------------------------------------------------------------------------
   1  Si        0.000000(   1)     -0.016677(   8)      0.007958(  15)
   2  Si        0.000000(   2)      0.000000(   9)     -0.013534(  16)
   3  Si        0.000000(   3)      0.016677(  10)      0.007958(  17)
   4  Si        0.000000(   4)     -0.007817(  11)     -0.002872(  18)
   5  Si        0.000000(   5)      0.007817(  12)     -0.002872(  19)
   6  Si       -0.009383(   6)      0.000000(  13)      0.001681(  20)
   7  Si        0.009383(   7)      0.000000(  14)      0.001681(  21)
 ------------------------------------------------------------------------
 Internal  Forces:  Max     0.016676853 RMS     0.007516573

 GradGradGradGradGradGradGradGradGradGradGradGradGradGradGradGradGradGrad
 Berny optimization.
 Search for a local minimum.
 Step number   1 out of a maximum of   2
 All quantities printed in internal units (Hartrees-Bohrs-Radians)
 Second derivative matrix not updated -- analytic derivatives used.
     Eigenvalues ---   -0.27608  -0.04283  -0.00431   0.00620   0.04826
     Eigenvalues ---    0.05335   0.08935   0.10869   0.11856   0.12656
     Eigenvalues ---    0.12988   0.13257   0.18040   0.20126   0.79609
 Eigenvalue   1 out of range, new value =    0.276085 Eigenvector:
                           1
           X1           0.00000
           Y1          -0.36236
           Z1          -0.34217
           X2           0.00000
           Y2           0.34767
           Z2           0.00000
           X3           0.00000
           Y3          -0.36235
           Z3           0.34217
           X4           0.00000
           Y4           0.36850
           Z4          -0.15167
           X5           0.00000
           Y5           0.36850
           Z5           0.15167
           X6           0.00000
           Y6          -0.17997
           Z6           0.00000
           X7           0.00001
           Y7          -0.17998
           Z7           0.00000
 Eigenvalue   2 out of range, new value =    0.042834 Eigenvector:
                           1
           X1           0.00000
           Y1          -0.11263
           Z1          -0.36775
           X2           0.00000
           Y2           0.00001
           Z2           0.60112
           X3           0.00001
           Y3           0.11263
           Z3          -0.36777
           X4          -0.00001
           Y4           0.26339
           Z4          -0.18828
           X5           0.00001
           Y5          -0.26339
           Z5          -0.18828
           X6          -0.03611
           Y6          -0.00001
           Z6           0.25547
           X7           0.03611
           Y7           0.00000
           Z7           0.25548
 Eigenvalue   3 out of range, new value =    0.004306 Eigenvector:
                           1
           X1           0.34712
           Y1          -0.00001
           Z1           0.00001
           X2           0.00000
           Y2           0.00001
           Z2           0.00001
           X3          -0.34711
           Y3           0.00001
           Z3           0.00000
           X4           0.61394
           Y4           0.00001
           Z4          -0.00001
           X5          -0.61394
           Y5          -0.00001
           Z5          -0.00002
           X6           0.00000
           Y6           0.05089
           Z6           0.00001
           X7           0.00000
           Y7          -0.05090
           Z7           0.00001
 Quadratic step=3.891D-01 exceeds max=3.000D-01 adjusted using Lamda=-1.892D-02.
 Angle between NR and scaled steps=   5.94 degrees.
 Angle between quadratic step and forces=  24.66 degrees.
 Linear search not attempted -- first point.
 TrRot=  0.000000  0.000000  0.000000  0.000000  0.000000  0.000000
 Variable       Old X    -DE/DX   Delta X   Delta X   Delta X     New X
                                 (Linear)    (Quad)   (Total)
    X1        0.00000   0.00000   0.00000   0.00000   0.00000   0.00000
    Y1        3.83577  -0.01668   0.00000  -0.12237  -0.12237   3.71340
    Z1        1.24621   0.00796   0.00000   0.11002   0.11002   1.35623
    X2        0.00000   0.00000   0.00000   0.00000   0.00000   0.00000
    Y2        0.00000   0.00000   0.00000   0.00000   0.00000   0.00000
    Z2        4.03332  -0.01353   0.00000  -0.13040  -0.13040   3.90292
    X3        0.00000   0.00000   0.00000   0.00000   0.00000   0.00000
    Y3       -3.83577   0.01668   0.00000   0.12237   0.12237  -3.71340
    Z3        1.24621   0.00796   0.00000   0.11002   0.11002   1.35623
    X4        0.00000   0.00000   0.00000   0.00000   0.00000   0.00000
    Y4       -2.37069  -0.00782   0.00000  -0.06624  -0.06624  -2.43692
    Z4       -3.26311  -0.00287   0.00000   0.00465   0.00465  -3.25846
    X5        0.00000   0.00000   0.00000   0.00000   0.00000   0.00000
    Y5        2.37069   0.00782   0.00000   0.06624   0.06624   2.43692
    Z5       -3.26311  -0.00287   0.00000   0.00465   0.00465  -3.25846
    X6       -2.43628  -0.00938   0.00000  -0.05073  -0.05073  -2.48701
    Y6        0.00000   0.00000   0.00000   0.00000   0.00000   0.00000
    Z6        0.00023   0.00168   0.00000  -0.04946  -0.04946  -0.04923
    X7        2.43628   0.00938   0.00000   0.05073   0.05073   2.48701
    Y7        0.00000   0.00000   0.00000   0.00000   0.00000   0.00000
    Z7        0.00023   0.00168   0.00000  -0.04946  -0.04946  -0.04923
         Item               Value     Threshold  Converged?
 Maximum Force            0.016677     0.000450     NO 
 RMS     Force            0.007517     0.000300     NO 
 Maximum Displacement     0.130403     0.001800     NO 
 RMS     Displacement     0.065473     0.001200     NO 
 Predicted change in Energy=-7.093528D-03
 GradGradGradGradGradGradGradGradGradGradGradGradGradGradGradGradGradGrad

 1\1\GINC-NODE39\Freq\UHF\6-311G(d)\Si7(1+,2)\TAM\17-Jun-2011\0\\# hf/6
 -311G(d) freq scfcyc=500 scf=xqc\\si7-c\\1,2\Si,0.,2.029803,0.659468\S
 i,0.,0.,2.13434\Si,0.,-2.029803,0.659468\Si,0.,-1.254513,-1.726762\Si,
 0.,1.254513,-1.726762\Si,-1.289223,0.,0.000123\Si,1.289223,0.,0.000123
 \\Version=AM64L-G03RevE.01\State=2-A1\HF=-2022.1387825\S2=0.835277\S2-
 1=0.\S2A=0.756267\RMSD=6.426e-09\RMSF=7.517e-03\ZeroPoint=0.0096272\Th
 ermal=0.0172278\Dipole=0.,0.,0.1420394\DipoleDeriv=0.2379231,-0.000000
 7,0.0000012,0.0000093,-0.6109281,0.3693735,-0.0000027,-1.0546483,0.312
 306,0.2481259,-0.0000032,0.0000043,-0.0000344,0.841133,-0.0001547,0.00
 00012,0.0000452,-0.1160828,0.2379227,-0.0000062,-0.0000031,0.000007,-0
 .6109044,-0.3693616,0.0000066,1.0546372,0.3123443,0.2181531,-0.0000011
 ,0.0000064,0.0000125,1.5422542,0.0838643,0.000034,0.0520536,0.8833132,
 0.2181546,-0.0000118,-0.0000116,0.0000143,1.5422468,-0.083809,-0.00003
 37,-0.052054,0.8832265,-0.0801401,0.0000012,0.1344992,-0.0000046,-0.85
 18883,-0.0000144,-0.005744,0.0000111,-0.6374396,-0.0801421,0.0000191,-
 0.1344916,-0.0000028,-0.8519056,-0.0000078,0.0057444,-0.0000339,-0.637
 4599\Polar=149.3920004,-0.0001678,238.1137347,-0.000016,-0.0007145,216
 .7597324\PolarDeriv=0.0001095,11.7423934,-0.0015283,2.3736205,0.000382
 8,0.0003591,5.015022,0.0021548,-70.506163,-0.0001707,31.0560457,21.290
 9956,1.9983638,0.0011876,-115.8244319,0.0006978,-9.3268992,26.7990196,
 0.0002867,-0.0003974,0.000459,9.3674679,0.0006137,0.0011063,0.002202,-
 0.0025083,0.0667636,0.0019635,-140.3644943,-0.0544112,4.5887415,-0.000
 3781,175.8029491,-0.0012379,0.0213617,-22.4171887,-0.000237,-11.742311
 1,0.0012647,2.3738051,0.0005107,0.0002024,-5.0149478,-0.0025204,70.509
 9121,-0.0006596,31.0540605,-21.2897334,1.9983921,0.0006065,-115.819654
 5,-0.0008596,9.332836,26.7893797,0.0000298,-4.7974596,-0.0001215,-7.10
 75971,0.0005734,0.0014058,-3.4267676,-0.0005891,37.4430528,-0.0011194,
 58.605812,-6.6104066,-4.4312052,0.0030212,18.3111242,-0.0017809,164.23
 25016,-5.1400089,-0.0001678,4.7975575,-0.0008704,-7.1079271,0.0016497,
 -0.0015274,3.42678,0.0000968,-37.4402278,-0.0011055,58.6079301,6.60416
 66,-4.4312508,0.0024031,18.3245752,0.0018706,-164.2435186,-5.130859,-2
 1.340619,0.0005174,-44.8074366,0.050227,-0.0106523,-8.9887388,0.000214
 ,-4.983003,0.0057235,0.0007055,-19.4789517,-0.00901,0.1366592,-0.00087
 05,9.5368538,-4.6620725,0.006775,-10.3955401,21.3406867,-0.0002767,44.
 807948,0.0505091,0.0032638,8.9884079,-0.0002307,4.9835081,-0.0080216,0
 .0000027,-19.4793693,0.0061175,0.1364715,0.0003814,9.5368102,4.662195,
 -0.0027619,-10.3948794\HyperPolar=-0.0046132,-0.0090289,0.0386553,-0.4
 082897,-9.1563323,-0.0056383,940.176892,-0.0137697,0.2200412,-358.1055
 384\PG=C02V [C2(Si1),SGV(Si4),SGV'(Si2)]\NImag=3\\0.01796000,-0.000000
 05,0.04919829,-0.00000003,-0.04823667,0.01245727,0.00222366,-0.0000003
 1,-0.00000020,0.02222901,0.00000027,0.00777506,0.10472772,0.00000074,0
 .15618979,0.00000007,0.02497886,0.01857770,0.00000034,-0.00000913,0.05
 099116,-0.00897664,-0.00000030,0.00000042,0.00222379,0.00000169,-0.000
 00028,0.01796000,-0.00000030,-0.06300742,-0.04542475,-0.00000015,0.007
 76905,-0.02497796,-0.00000005,0.04919829,-0.00000042,0.04542475,0.0065
 3843,-0.00000009,-0.10472540,0.01858103,0.00000003,0.04823667,0.012457
 27,-0.00416007,-0.00000023,-0.00000033,-0.00761729,0.00000030,0.000000
 52,0.00723264,-0.00000039,-0.00000027,0.00908754,-0.00000014,0.0585937
 8,0.00692786,-0.00000004,-0.13516761,-0.01819169,-0.00000078,0.0514710
 2,-0.00399157,0.00000009,0.07189272,-0.00000026,-0.00971924,-0.0778193
 0,-0.00000077,-0.15070232,0.00565297,-0.00000177,0.00036080,0.03354632
 ,-0.00000044,0.16470612,0.27014108,0.00723264,-0.00000039,0.00000027,-
 0.00761746,0.00000205,-0.00000093,-0.00416007,-0.00000023,0.00000033,0
 .01010934,-0.00000063,-0.00000202,0.00908754,-0.00000078,0.05147102,0.
 00399157,-0.00000019,-0.13516645,0.01819658,-0.00000014,0.05859378,-0.
 00692786,-0.00000063,-0.00925841,0.11249529,0.00000009,0.07189272,0.00
 000177,-0.00036080,0.03354632,0.00000073,0.15070180,0.00564549,0.00000
 026,0.00971924,-0.07781930,0.00000202,-0.11249529,-0.18924648,0.000000
 44,-0.16470612,0.27014108,-0.00713988,-0.01007799,-0.00602296,-0.00572
 089,-0.00000056,-0.00010550,-0.00713967,0.01007912,-0.00602321,-0.0073
 2609,0.00785121,0.00649417,-0.00732584,-0.00785046,0.00649011,0.108269
 97,-0.02332475,-0.05201289,-0.01099295,0.00000009,0.04929709,-0.000000
 67,0.02332532,-0.05201429,0.01099187,0.01007546,-0.01876472,-0.0585676
 6,-0.01007536,-0.01876713,0.05857244,-0.00000024,0.09073113,-0.0037133
 6,-0.00604490,0.00334647,-0.02696213,-0.00000293,-0.04971789,-0.003713
 17,0.00604686,0.00334900,0.01896580,-0.01847375,-0.02113088,0.01896573
 ,0.01847792,-0.02113960,-0.00218909,-0.00000047,0.09034043,-0.00713967
 ,0.01007912,0.00602321,-0.00572077,-0.00000329,0.00010617,-0.00713988,
 -0.01007799,0.00602296,-0.00732584,-0.00785046,-0.00649011,-0.00732609
 ,0.00785121,-0.00649417,-0.07361795,-0.00000017,-0.00135411,0.10826997
 ,0.02332532,-0.05201429,-0.01099187,-0.00000006,0.04930210,-0.00000123
 ,-0.02332475,-0.05201289,0.01099295,-0.01007536,-0.01876713,-0.0585724
 4,0.01007546,-0.01876472,0.05856766,-0.00000017,0.00152807,-0.00000086
 ,-0.00000024,0.09073113,0.00371317,-0.00604686,0.00334900,0.02696207,0
 .00000637,-0.04971968,0.00371336,0.00604490,0.00334647,-0.01896573,-0.
 01847792,-0.02113960,-0.01896580,0.01847375,-0.02113088,0.00135411,0.0
 0000086,-0.00504995,0.00218909,0.00000047,0.09034043\\0.,0.01667685,-0
 .00795766,0.,0.,0.01353354,0.,-0.01667685,-0.00795766,0.,0.00781730,0.
 00287175,0.,-0.00781730,0.00287175,0.00938273,0.,-0.00168086,-0.009382
 73,0.,-0.00168086\\\@


 "WOULD YOU TELL ME PLEASE, WHICH WAY I OUGHT TO WALK FROM HERE?"
 "THAT DEPENDS A GREAT DEAL ON WHERE YOU WANT TO GO," SAID THE CAT.
 "I DON'T MUCH CARE WHERE -- ", SAID ALICE.
 "THEN IT DOESN'T MATTER WHICH WAY YOU WALK," SAID THE CAT.

                                      -- LEWIS CARROLL
 Job cpu time:  0 days  0 hours 12 minutes  9.9 seconds.
 File lengths (MBytes):  RWF=     79 Int=      0 D2E=      0 Chk=      9 Scr=      1
 Normal termination of Gaussian 03 at Fri Jun 17 16:25:16 2011.
 Initial command:
 /usr/local/chem/g03E01/l1.exe /temp0/tam/Gau-28235.inp -scrdir=/temp0/tam/
 Entering Link 1 = /usr/local/chem/g03E01/l1.exe PID=     28308.
  
 Copyright (c) 1988,1990,1992,1993,1995,1998,2003,2004,2007, Gaussian, Inc.
                  All Rights Reserved.
  
 This is the Gaussian(R) 03 program.  It is based on the
 the Gaussian(R) 98 system (copyright 1998, Gaussian, Inc.),
 the Gaussian(R) 94 system (copyright 1995, Gaussian, Inc.),
 the Gaussian 92(TM) system (copyright 1992, Gaussian, Inc.),
 the Gaussian 90(TM) system (copyright 1990, Gaussian, Inc.),
 the Gaussian 88(TM) system (copyright 1988, Gaussian, Inc.),
 the Gaussian 86(TM) system (copyright 1986, Carnegie Mellon
 University), and the Gaussian 82(TM) system (copyright 1983,
 Carnegie Mellon University). Gaussian is a federally registered
 trademark of Gaussian, Inc.
  
 This software contains proprietary and confidential information,
 including trade secrets, belonging to Gaussian, Inc.
  
 This software is provided under written license and may be
 used, copied, transmitted, or stored only in accord with that
 written license.
  
 The following legend is applicable only to US Government
 contracts under FAR:
  
                    RESTRICTED RIGHTS LEGEND
  
 Use, reproduction and disclosure by the US Government is
 subject to restrictions as set forth in subparagraphs (a)
 and (c) of the Commercial Computer Software - Restricted
 Rights clause in FAR 52.227-19.
  
 Gaussian, Inc.
 340 Quinnipiac St., Bldg. 40, Wallingford CT 06492
  
  
 ---------------------------------------------------------------
 Warning -- This program may not be used in any manner that
 competes with the business of Gaussian, Inc. or will provide
 assistance to any competitor of Gaussian, Inc.  The licensee
 of this program is prohibited from giving any competitor of
 Gaussian, Inc. access to this program.  By using this program,
 the user acknowledges that Gaussian, Inc. is engaged in the
 business of creating and licensing software in the field of
 computational chemistry and represents and warrants to the
 licensee that it is not a competitor of Gaussian, Inc. and that
 it will not use this program in any manner prohibited above.
 ---------------------------------------------------------------
  

 Cite this work as:
 Gaussian 03, Revision E.01,
 M. J. Frisch, G. W. Trucks, H. B. Schlegel, G. E. Scuseria, 
 M. A. Robb, J. R. Cheeseman, J. A. Montgomery, Jr., T. Vreven, 
 K. N. Kudin, J. C. Burant, J. M. Millam, S. S. Iyengar, J. Tomasi, 
 V. Barone, B. Mennucci, M. Cossi, G. Scalmani, N. Rega, 
 G. A. Petersson, H. Nakatsuji, M. Hada, M. Ehara, K. Toyota, 
 R. Fukuda, J. Hasegawa, M. Ishida, T. Nakajima, Y. Honda, O. Kitao, 
 H. Nakai, M. Klene, X. Li, J. E. Knox, H. P. Hratchian, J. B. Cross, 
 V. Bakken, C. Adamo, J. Jaramillo, R. Gomperts, R. E. Stratmann, 
 O. Yazyev, A. J. Austin, R. Cammi, C. Pomelli, J. W. Ochterski, 
 P. Y. Ayala, K. Morokuma, G. A. Voth, P. Salvador, J. J. Dannenberg, 
 V. G. Zakrzewski, S. Dapprich, A. D. Daniels, M. C. Strain, 
 O. Farkas, D. K. Malick, A. D. Rabuck, K. Raghavachari, 
 J. B. Foresman, J. V. Ortiz, Q. Cui, A. G. Baboul, S. Clifford, 
 J. Cioslowski, B. B. Stefanov, G. Liu, A. Liashenko, P. Piskorz, 
 I. Komaromi, R. L. Martin, D. J. Fox, T. Keith, M. A. Al-Laham, 
 C. Y. Peng, A. Nanayakkara, M. Challacombe, P. M. W. Gill, 
 B. Johnson, W. Chen, M. W. Wong, C. Gonzalez, and J. A. Pople, 
 Gaussian, Inc., Wallingford CT, 2004.
 
 ******************************************
 Gaussian 03:  AM64L-G03RevE.01 11-Sep-2007
                17-Jun-2011 
 ******************************************
 %NprocShared=4
 Will use up to    4 processors via shared memory.
 %mem=3750MB
 %chk=S9L-ne-d-01
 ----------------------------------------------------------------------
 # b3lyp/6-311+G(d) opt=(readfc,noeigentest,maxcycle=500) freq scfcyc=5
 00 optcyc=500 scf=xqc geom=allcheck guess=read
 ----------------------------------------------------------------------
 1/6=500,10=3,11=1,14=-1,18=20,26=3,29=7,38=1/1,3;
 2/9=110,40=1/2;
 3/5=4,6=6,7=11,11=2,16=1,25=1,30=1,74=-5/1,2,3;
 4/5=1/1;
 5/5=2,7=500,8=3,13=1,38=6/2,8;
 6/7=2,8=2,9=2,10=2,28=1/1;
 7//1,2,3,16;
 1/6=500,11=1,14=-1,18=20/3(3);
 2/9=110/2;
 6/7=2,8=2,9=2,10=2,19=2,28=1/1;
 99//99;
 2/9=110/2;
 3/5=4,6=6,7=11,11=2,16=1,25=1,30=1,74=-5/1,2,3;
 4/5=5,16=3/1;
 5/5=2,7=500,8=3,13=1,38=5/2,8;
 7//1,2,3,16;
 1/6=500,11=1,14=-1,18=20/3(-5);
 2/9=110/2;
 6/7=2,8=2,9=2,10=2,19=2,28=1/1;
 99/9=1/99;
 -----
 si7-c
 -----
 No Z-matrix found on checkpoint file.
 Cartesian coordinates read from the checkpoint file:
 S9L-ne-d-01.chk
 Charge =  1 Multiplicity = 2
  Si                                                0.000000000000      2.029803000000      0.659468000000
  Si                                                0.000000000000      0.000000000000      2.134340000000
  Si                                                0.000000000000     -2.029803000000      0.659468000000
  Si                                                0.000000000000     -1.254513000000     -1.726762000000
  Si                                                0.000000000000      1.254513000000     -1.726762000000
  Si                                               -1.289223000000      0.000000000000      0.000123000000
  Si                                                1.289223000000      0.000000000000      0.000123000000
 Recover connectivity data from disk.

 GradGradGradGradGradGradGradGradGradGradGradGradGradGradGradGradGradGrad
 Berny optimization.
 Initialization pass.
 No redundant coordinates on chk file, so ReadFC converted to ReadCartesianFC.
 Cartesian force constants read from checkpoint file:
 S9L-ne-d-01.chk
                           ----------------------------
                           !    Initial Parameters    !
                           ! (Angstroms and Degrees)  !
 --------------------------                            --------------------------
 ! Name  Definition              Value          Derivative Info.                !
 --------------------------------------------------------------------------------
 ! R1    R(1,2)                  2.5091         D2E/DX2 =    0.0667             !
 ! R2    R(1,5)                  2.509          D2E/DX2 =   -0.0228             !
 ! R3    R(1,6)                  2.4934         D2E/DX2 =    0.032              !
 ! R4    R(1,7)                  2.4934         D2E/DX2 =    0.032              !
 ! R5    R(2,3)                  2.5091         D2E/DX2 =    0.0667             !
 ! R6    R(2,6)                  2.4934         D2E/DX2 =    0.0293             !
 ! R7    R(2,7)                  2.4934         D2E/DX2 =    0.0293             !
 ! R8    R(3,4)                  2.509          D2E/DX2 =   -0.0228             !
 ! R9    R(3,6)                  2.4934         D2E/DX2 =    0.032              !
 ! R10   R(3,7)                  2.4934         D2E/DX2 =    0.032              !
 ! R11   R(4,5)                  2.509          D2E/DX2 =    0.0159             !
 ! R12   R(4,6)                  2.4936         D2E/DX2 =    0.066              !
 ! R13   R(4,7)                  2.4936         D2E/DX2 =    0.066              !
 ! R14   R(5,6)                  2.4936         D2E/DX2 =    0.066              !
 ! R15   R(5,7)                  2.4936         D2E/DX2 =    0.066              !
 ! R16   R(6,7)                  2.5784         D2E/DX2 =    0.0337             !
 ! A1    A(2,1,5)              108.0034         D2E/DX2 =   -0.0025             !
 ! A2    A(1,2,3)              107.9951         D2E/DX2 =   -0.0013             !
 ! A3    A(2,3,4)              108.0034         D2E/DX2 =   -0.0025             !
 ! A4    A(3,4,5)              107.9991         D2E/DX2 =    0.0232             !
 ! A5    A(1,5,4)              107.9991         D2E/DX2 =    0.0232             !
 ! A6    A(1,6,3)              108.9925         D2E/DX2 =    0.0034             !
 ! A7    A(1,6,4)              108.9875         D2E/DX2 =    0.0015             !
 ! A8    A(2,6,4)              108.9925         D2E/DX2 =    0.0045             !
 ! A9    A(2,6,5)              108.9925         D2E/DX2 =    0.0045             !
 ! A10   A(3,6,5)              108.9875         D2E/DX2 =    0.0015             !
 ! A11   A(1,7,3)              108.9925         D2E/DX2 =    0.0034             !
 ! A12   A(1,7,4)              108.9875         D2E/DX2 =    0.0015             !
 ! A13   A(2,7,4)              108.9925         D2E/DX2 =    0.0045             !
 ! A14   A(2,7,5)              108.9925         D2E/DX2 =    0.0045             !
 ! A15   A(3,7,5)              108.9875         D2E/DX2 =    0.0015             !
 ! D1    D(5,1,2,3)              0.0            D2E/DX2 =   -0.0001             !
 ! D2    D(2,1,5,4)              0.0            D2E/DX2 =   -0.0002             !
 ! D3    D(1,2,3,4)              0.0            D2E/DX2 =   -0.0001             !
 ! D4    D(2,3,4,5)              0.0            D2E/DX2 =   -0.0002             !
 ! D5    D(3,4,5,1)              0.0            D2E/DX2 =   -0.0002             !
 --------------------------------------------------------------------------------
 Trust Radius=3.00D-01 FncErr=1.00D-07 GrdErr=1.00D-06
 Number of steps in this run= 100 maximum allowed number of steps= 100.
 GradGradGradGradGradGradGradGradGradGradGradGradGradGradGradGradGradGrad

                          Input orientation:                          
 ---------------------------------------------------------------------
 Center     Atomic     Atomic              Coordinates (Angstroms)
 Number     Number      Type              X           Y           Z
 ---------------------------------------------------------------------
    1         14             0        0.000000    2.029803    0.659468
    2         14             0        0.000000    0.000000    2.134340
    3         14             0        0.000000   -2.029803    0.659468
    4         14             0        0.000000   -1.254513   -1.726762
    5         14             0        0.000000    1.254513   -1.726762
    6         14             0       -1.289223    0.000000    0.000123
    7         14             0        1.289223    0.000000    0.000123
 ---------------------------------------------------------------------
                    Distance matrix (angstroms):
                    1          2          3          4          5
     1  Si   0.000000
     2  Si   2.509053   0.000000
     3  Si   4.059606   2.509053   0.000000
     4  Si   4.059658   4.059792   2.509017   0.000000
     5  Si   2.509017   4.059792   4.059658   2.509026   0.000000
     6  Si   2.493378   2.493387   2.493378   2.493598   2.493598
     7  Si   2.493378   2.493387   2.493378   2.493598   2.493598
                    6          7
     6  Si   0.000000
     7  Si   2.578446   0.000000
 Stoichiometry    Si7(1+,2)
 Framework group  C2V[C2(Si),SGV(Si4),SGV'(Si2)]
 Deg. of freedom     6
 Full point group                 C2V
 Largest Abelian subgroup         C2V     NOp   4
 Largest concise Abelian subgroup C2V     NOp   4
                         Standard orientation:                         
 ---------------------------------------------------------------------
 Center     Atomic     Atomic              Coordinates (Angstroms)
 Number     Number      Type              X           Y           Z
 ---------------------------------------------------------------------
    1         14             0        0.000000    2.029803    0.659468
    2         14             0        0.000000    0.000000    2.134340
    3         14             0        0.000000   -2.029803    0.659468
    4         14             0        0.000000   -1.254513   -1.726762
    5         14             0        0.000000    1.254513   -1.726762
    6         14             0       -1.289223    0.000000    0.000123
    7         14             0        1.289223    0.000000    0.000123
 ---------------------------------------------------------------------
 Rotational constants (GHZ):      1.2278505      1.2277828      0.7931067
 Standard basis: 6-311+G(d) (5D, 7F)
 There are    81 symmetry adapted basis functions of A1  symmetry.
 There are    25 symmetry adapted basis functions of A2  symmetry.
 There are    45 symmetry adapted basis functions of B1  symmetry.
 There are    59 symmetry adapted basis functions of B2  symmetry.
 Integral buffers will be    131072 words long.
 Raffenetti 2 integral format.
 Two-electron integral symmetry is turned on.
   210 basis functions,   350 primitive gaussians,   217 cartesian basis functions
    49 alpha electrons       48 beta electrons
       nuclear repulsion energy       790.6195566402 Hartrees.
 NAtoms=    7 NActive=    7 NUniq=    4 SFac= 2.30D+00 NAtFMM=   80 NAOKFM=F Big=F
 One-electron integrals computed using PRISM.
 NBasis=   210 RedAO= T  NBF=    81    25    45    59
 NBsUse=   210 1.00D-06 NBFU=    81    25    45    59
 Initial guess read from the checkpoint file:
 S9L-ne-d-01.chk
 Initial guess orbital symmetries:
 Alpha Orbitals:
       Occupied  (A1) (B2) (B2) (A1) (A1) (A1) (B1) (A1) (B2) (B2)
                 (A1) (A1) (A1) (B1) (A1) (B2) (A1) (B2) (B1) (A1)
                 (A2) (B2) (B1) (A2) (A1) (B2) (A1) (B1) (B2) (A1)
                 (B1) (A1) (B1) (B2) (A2) (A1) (B2) (A1) (B1) (B2)
                 (A1) (A1) (A2) (B1) (A1) (B2) (A1) (A1) (B2)
       Virtual   (B1) (A2) (B1) (A1) (B2) (B1) (A1) (B2) (A1) (A1)
                 (B2) (A2) (B1) (B2) (A1) (A1) (B2) (A1) (B2) (A2)
                 (B1) (A1) (B2) (A1) (B1) (A2) (B1) (B2) (A1) (B1)
                 (A1) (B2) (A2) (B1) (B2) (A1) (B2) (A1) (B1) (A2)
                 (A1) (B1) (B2) (A1) (A1) (B2) (B2) (A1) (A2) (B1)
                 (B1) (A2) (B2) (A1) (A1) (B2) (A1) (B1) (A2) (A1)
                 (A2) (A1) (B1) (B2) (B1) (A1) (B2) (A1) (B2) (A1)
                 (A2) (B1) (A2) (B1) (B2) (A1) (B2) (A2) (B1) (B1)
                 (A1) (B2) (A2) (B1) (A1) (B2) (A1) (B2) (A1) (B2)
                 (A1) (B2) (A2) (B1) (B2) (A1) (A1) (B1) (A1) (B2)
                 (A1) (B1) (B2) (A1) (A1) (A2) (B1) (B2) (A1) (B1)
                 (A2) (B1) (B2) (A1) (B2) (A1) (B2) (A1) (A1) (B2)
                 (B1) (A2) (B1) (B2) (A1) (A1) (A1) (B2) (A1) (B1)
                 (B2) (A1) (A1) (A1) (A1) (A1) (A1) (A1) (A1) (A1)
                 (A1) (A1) (A1) (A1) (A2) (A2) (A2) (B1) (B1) (B1)
                 (B1) (B1) (B1) (B2) (B2) (B2) (B2) (B2) (B2) (B2)
                 (B2)
 Beta  Orbitals:
       Occupied  (A1) (B2) (B2) (A1) (A1) (A1) (B1) (A1) (B2) (B2)
                 (A1) (A1) (A1) (B1) (A1) (B2) (B1) (A2) (A2) (B1)
                 (B2) (A1) (A1) (B2) (A1) (B2) (B2) (B1) (A1) (A1)
                 (B1) (B2) (A2) (A1) (B1) (A1) (B2) (A1) (B1) (A1)
                 (B2) (A1) (A2) (B1) (A1) (B2) (A1) (B2)
       Virtual   (A1) (B1) (A2) (B1) (B2) (B1) (A1) (B2) (A1) (A1)
                 (B2) (A1) (A2) (B1) (A1) (B2) (A1) (B2) (B2) (A2)
                 (B1) (A1) (B2) (A1) (A1) (B1) (A2) (B1) (B2) (A1)
                 (B1) (A2) (B1) (B2) (A1) (B2) (A1) (B2) (A1) (A2)
                 (B1) (A1) (B1) (B2) (A1) (B2) (A1) (B2) (A1) (A2)
                 (B1) (A1) (A2) (B1) (B2) (A1) (B2) (A1) (B1) (A2)
                 (A1) (A2) (A1) (B1) (B1) (B2) (A1) (A1) (B2) (B2)
                 (A1) (A2) (B1) (A2) (B1) (B2) (A1) (B2) (A2) (B1)
                 (B1) (A2) (A1) (B2) (B1) (A1) (B2) (A1) (B2) (A1)
                 (B2) (B2) (A1) (A2) (B1) (B2) (A1) (A1) (B1) (A1)
                 (B2) (A1) (B1) (B2) (A1) (A1) (A2) (B1) (A1) (B2)
                 (B1) (A2) (B1) (B2) (A1) (B2) (A1) (B2) (A1) (B2)
                 (A1) (A2) (B1) (B1) (B2) (A1) (A1) (A1) (B2) (A1)
                 (B1) (B2) (A1) (A1) (A1) (A1) (A1) (A1) (A1) (A1)
                 (A1) (A1) (A1) (A1) (A1) (A2) (A2) (A2) (B1) (B1)
                 (B1) (B1) (B1) (B1) (B2) (B2) (B2) (B2) (B2) (B2)
                 (B2) (B2)
 <S**2> of initial guess= 0.8353
 Requested convergence on RMS density matrix=1.00D-08 within 128 cycles.
 Requested convergence on MAX density matrix=1.00D-06.
 Requested convergence on             energy=1.00D-06.
 No special actions if energy rises.
 SCF Done:  E(UB+HF-LYP) =  -2026.26108154     A.U. after   17 cycles
             Convg  =    0.3996D-08             -V/T =  2.0017
             S**2   =   0.7596
 Annihilation of the first spin contaminant:
 S**2 before annihilation     0.7596,   after     0.7501
 QCSCF skips out because SCF is already converged.

 **********************************************************************

            Population analysis using the SCF density.

 **********************************************************************

 Orbital symmetries:
 Alpha Orbitals:
       Occupied  (A1) (B2) (B2) (A1) (A1) (A1) (B1) (A1) (B2) (B2)
                 (A1) (A1) (A1) (B1) (A1) (B2) (B1) (A2) (A1) (B2)
                 (B1) (A2) (A1) (B2) (B2) (A1) (B1) (A1) (B2) (A1)
                 (B1) (A1) (B2) (B1) (A2) (A1) (B2) (A1) (B1) (B2)
                 (A1) (A1) (A2) (B1) (A1) (A1) (B2) (A1) (B2)
       Virtual   (B1) (A2) (B1) (A1) (B2) (B2) (B1) (A1) (A1) (A1)
                 (B2) (A2) (B1) (A1) (B2) (A1) (B2) (A2) (B1) (A1)
                 (B2) (A1) (B1) (A1) (B2) (B1) (A2) (B1) (B2) (A1)
                 (A1) (B2) (A1) (A1) (B2) (A2) (B1) (A1) (B2) (B1)
                 (B2) (A1) (B2) (A1) (A1) (B2) (A1) (A2) (B1) (B2)
                 (A1) (A1) (A2) (B1) (B1) (B2) (A1) (B1) (A2) (B1)
                 (B2) (A1) (B1) (A2) (B2) (A1) (B2) (A1) (A1) (B2)
                 (A1) (B1) (A2) (B1) (A1) (B2) (B1) (A2) (B2) (A1)
                 (B2) (A1) (B2) (A1) (A1) (A2) (B1) (A2) (A1) (B1)
                 (B2) (A1) (B2) (A1) (A2) (B1) (A2) (B1) (B2) (B2)
                 (A1) (A1) (B1) (B2) (A1) (A2) (B1) (B1) (A2) (B1)
                 (A1) (B2) (A1) (B2) (B2) (A1) (A1) (B2) (A2) (B1)
                 (A1) (B2) (A1) (B2) (A1) (B1) (B2) (A1) (A1) (B1)
                 (B2) (A1) (A1) (A2) (B1) (B2) (A1) (A2) (B1) (B1)
                 (B2) (A1) (B2) (A1) (B2) (A1) (A1) (A2) (B1) (B2)
                 (B1) (B2) (A1) (A1) (B2) (A1) (A1) (B1) (B2) (A1)
                 (A1)
 Beta  Orbitals:
       Occupied  (A1) (B2) (B2) (A1) (A1) (A1) (B1) (A1) (B2) (B2)
                 (A1) (A1) (A1) (B1) (B1) (A2) (A1) (B2) (A1) (B2)
                 (B1) (A2) (B2) (A1) (B2) (A1) (B1) (A1) (B2) (A1)
                 (B1) (B2) (A1) (A2) (B1) (A1) (B2) (A1) (B1) (B2)
                 (A1) (A1) (A2) (B1) (A1) (B2) (A1) (B2)
       Virtual   (A1) (B1) (A2) (B1) (A1) (B2) (B1) (B2) (A1) (A1)
                 (B2) (A1) (A2) (B1) (A1) (B2) (A1) (B2) (A2) (B1)
                 (B2) (A1) (A1) (B1) (B2) (A1) (A2) (B1) (B1) (B2)
                 (A1) (A1) (B2) (A1) (A1) (B2) (A2) (B1) (A1) (B2)
                 (B1) (B2) (A1) (B2) (A1) (A1) (B2) (A1) (A2) (B1)
                 (B2) (A1) (A1) (A2) (B1) (B1) (B2) (A1) (B1) (A2)
                 (B1) (B2) (A1) (A2) (B1) (B2) (A1) (B2) (A1) (A1)
                 (B1) (B2) (A1) (A2) (B1) (B2) (A1) (B1) (A2) (B2)
                 (A1) (B2) (A1) (B2) (A1) (A1) (B1) (A2) (A2) (A1)
                 (B1) (B2) (A1) (A2) (B2) (A1) (B1) (A2) (B1) (B2)
                 (A1) (B2) (A1) (B1) (B2) (A1) (A2) (B1) (B1) (A2)
                 (B1) (A1) (B2) (A1) (B2) (A1) (B2) (A1) (B2) (A2)
                 (B1) (B2) (A1) (A1) (B2) (A1) (B1) (A1) (B2) (A1)
                 (B1) (B2) (A1) (A1) (A2) (B1) (B2) (A1) (A2) (B1)
                 (B1) (B2) (A1) (B2) (A1) (B2) (A1) (A2) (B1) (A1)
                 (B2) (B1) (B2) (A1) (A1) (B2) (A1) (A1) (B1) (B2)
                 (A1) (A1)
 The electronic state is 2-A1.
 Alpha  occ. eigenvalues --  -66.31252 -66.31252 -66.30864 -66.30864 -66.30467
 Alpha  occ. eigenvalues --  -66.28733 -66.28733  -5.47974  -5.47970  -5.47595
 Alpha  occ. eigenvalues --   -5.47594  -5.47210  -5.45922  -5.45914  -3.83931
 Alpha  occ. eigenvalues --   -3.83908  -3.83774  -3.83772  -3.83515  -3.83508
 Alpha  occ. eigenvalues --   -3.83478  -3.83478  -3.83393  -3.83393  -3.83182
 Alpha  occ. eigenvalues --   -3.83182  -3.83147  -3.82962  -3.82776  -3.81826
 Alpha  occ. eigenvalues --   -3.81806  -3.81603  -3.81602  -3.81601  -3.81601
 Alpha  occ. eigenvalues --   -0.86457  -0.72278  -0.72240  -0.62977  -0.56710
 Alpha  occ. eigenvalues --   -0.56542  -0.55052  -0.44994  -0.44977  -0.42521
 Alpha  occ. eigenvalues --   -0.41892  -0.41714  -0.41567  -0.40348
 Alpha virt. eigenvalues --   -0.27666  -0.25050  -0.24870  -0.21396  -0.21384
 Alpha virt. eigenvalues --   -0.19094  -0.19016  -0.18872  -0.18833  -0.15186
 Alpha virt. eigenvalues --   -0.15186  -0.13337  -0.13303  -0.08816  -0.07335
 Alpha virt. eigenvalues --   -0.07210  -0.07148  -0.05956  -0.05942  -0.05544
 Alpha virt. eigenvalues --   -0.05510  -0.05258  -0.05124  -0.04200  -0.04080
 Alpha virt. eigenvalues --   -0.02168  -0.02162  -0.02050  -0.01906  -0.01903
 Alpha virt. eigenvalues --   -0.00626   0.00600   0.00623   0.01216   0.01220
 Alpha virt. eigenvalues --    0.01642   0.01653   0.03362   0.05701   0.06258
 Alpha virt. eigenvalues --    0.06406   0.06420   0.06506   0.06532   0.08637
 Alpha virt. eigenvalues --    0.09018   0.09048   0.09843   0.09851   0.14017
 Alpha virt. eigenvalues --    0.14040   0.15109   0.15665   0.15702   0.16925
 Alpha virt. eigenvalues --    0.17967   0.17970   0.19634   0.20663   0.20682
 Alpha virt. eigenvalues --    0.20788   0.20803   0.21955   0.22683   0.25413
 Alpha virt. eigenvalues --    0.27932   0.30666   0.31060   0.34199   0.34865
 Alpha virt. eigenvalues --    0.34992   0.35026   0.36278   0.36284   0.37899
 Alpha virt. eigenvalues --    0.38471   0.40131   0.40368   0.44025   0.44064
 Alpha virt. eigenvalues --    0.45353   0.45381   0.46568   0.46584   0.49074
 Alpha virt. eigenvalues --    0.50359   0.50492   0.52137   0.58860   0.66248
 Alpha virt. eigenvalues --    0.67645   0.68112   0.69021   0.69110   0.69459
 Alpha virt. eigenvalues --    0.69545   0.72008   0.72022   0.73062   0.73284
 Alpha virt. eigenvalues --    0.73346   0.73794   0.74596   0.75167   0.75195
 Alpha virt. eigenvalues --    1.08152   1.08186   1.10374   1.13856   1.13920
 Alpha virt. eigenvalues --    1.13985   1.14522   1.19027   1.19064   1.26174
 Alpha virt. eigenvalues --    1.26177   1.27832   1.30566   1.31017   1.31029
 Alpha virt. eigenvalues --    1.33378   1.33527   1.44321   1.44329   1.44605
 Alpha virt. eigenvalues --    1.52900   5.22013   5.22029   5.22417   5.25628
 Alpha virt. eigenvalues --    5.30123   5.30191   5.54930  11.11378  11.11412
 Alpha virt. eigenvalues --   11.13879  11.13915  11.14029  11.14329  11.14447
[...]
   1  14    -0.42   0.00   0.00     0.55   0.00   0.00     0.00   0.07  -0.17
   2  14     0.00   0.00   0.00    -0.53   0.00   0.00     0.00   0.00   0.04
   3  14     0.42   0.00   0.00     0.55   0.00   0.00     0.00  -0.07  -0.17
   4  14    -0.57   0.00   0.00    -0.08   0.00   0.00     0.00   0.56  -0.19
   5  14     0.57   0.00   0.00    -0.08   0.00   0.00     0.00  -0.56  -0.19
   6  14     0.00   0.04   0.00    -0.21   0.00  -0.05    -0.05   0.00   0.34
   7  14     0.00  -0.04   0.00    -0.21   0.00   0.05     0.05   0.00   0.34
                     4                      5                      6
                    B2                     B1                     B2
 Frequencies --   225.0343               228.5096               236.7137
 Red. masses --    27.9769                27.9769                27.9769
 Frc consts  --     0.8347                 0.8607                 0.9236
 IR Inten    --     0.0001                 0.2898                 2.6687
 Atom AN      X      Y      Z        X      Y      Z        X      Y      Z
   1  14     0.00  -0.26  -0.43     0.03   0.00   0.00     0.00   0.28   0.06
   2  14     0.00   0.06   0.00     0.41   0.00   0.00     0.00   0.37   0.00
   3  14     0.00  -0.26   0.43     0.03   0.00   0.00     0.00   0.28  -0.06
   4  14     0.00   0.45  -0.03     0.32   0.00   0.00     0.00  -0.05  -0.41
   5  14     0.00   0.45   0.03     0.32   0.00   0.00     0.00  -0.05   0.41
   6  14     0.00  -0.22   0.00    -0.56   0.00   0.03     0.00  -0.42   0.00
   7  14     0.00  -0.22   0.00    -0.56   0.00  -0.03     0.00  -0.42   0.00
                     7                      8                      9
                    A1                     A1                     A2
 Frequencies --   256.5171               292.0931               310.0422
 Red. masses --    27.9769                27.9769                27.9769
 Frc consts  --     1.0846                 1.4063                 1.5845
 IR Inten    --     3.7386                 3.1647                 0.0000
 Atom AN      X      Y      Z        X      Y      Z        X      Y      Z
   1  14     0.00   0.55  -0.01     0.00  -0.03   0.51    -0.25   0.00   0.00
   2  14     0.00   0.00  -0.46     0.00   0.00  -0.11     0.00   0.00   0.00
   3  14     0.00  -0.55  -0.01     0.00   0.03   0.51     0.25   0.00   0.00
   4  14     0.00   0.03   0.26     0.00   0.33  -0.11     0.22   0.00   0.00
   5  14     0.00  -0.03   0.26     0.00  -0.33  -0.11    -0.22   0.00   0.00
   6  14    -0.16   0.00  -0.02    -0.06   0.00  -0.34     0.00   0.62   0.00
   7  14     0.16   0.00  -0.02     0.06   0.00  -0.34     0.00  -0.62   0.00
                    10                     11                     12
                    B1                     A1                     B2
 Frequencies --   317.5565               340.3466               379.6165
 Red. masses --    27.9769                27.9769                27.9769
 Frc consts  --     1.6622                 1.9094                 2.3754
 IR Inten    --     0.0011                 2.4982                25.0392
 Atom AN      X      Y      Z        X      Y      Z        X      Y      Z
   1  14     0.08   0.00   0.00     0.00   0.35   0.17     0.00   0.04   0.32
   2  14     0.37   0.00   0.00     0.00   0.00   0.13     0.00   0.21   0.00
   3  14     0.08   0.00   0.00     0.00  -0.35   0.17     0.00   0.04  -0.32
   4  14    -0.23   0.00   0.00     0.00  -0.15  -0.35     0.00   0.18   0.48
   5  14    -0.23   0.00   0.00     0.00   0.15  -0.35     0.00   0.18  -0.48
   6  14    -0.03   0.00  -0.61     0.43   0.00   0.11     0.00  -0.33   0.00
   7  14    -0.03   0.00   0.61    -0.43   0.00   0.11     0.00  -0.33   0.00
                    13                     14                     15
                    A1                     B2                     A1
 Frequencies --   388.7693               391.0183               409.4664
 Red. masses --    27.9769                27.9769                27.9769
 Frc consts  --     2.4913                 2.5203                 2.7637
 IR Inten    --    18.0582                 8.0176                 1.0476
 Atom AN      X      Y      Z        X      Y      Z        X      Y      Z
   1  14     0.00   0.16  -0.20     0.00  -0.43   0.16     0.00  -0.20  -0.02
   2  14     0.00   0.00   0.57     0.00   0.71   0.00     0.00   0.00  -0.53
   3  14     0.00  -0.16  -0.20     0.00  -0.43  -0.16     0.00   0.20  -0.02
   4  14     0.00   0.21   0.25     0.00  -0.08  -0.10     0.00   0.14   0.24
   5  14     0.00  -0.21   0.25     0.00  -0.08   0.10     0.00  -0.14   0.24
   6  14     0.22   0.00  -0.33     0.00   0.15   0.00     0.49   0.00   0.05
   7  14    -0.22   0.00  -0.33     0.00   0.15   0.00    -0.49   0.00   0.05

 -------------------
 - Thermochemistry -
 -------------------
 Temperature   298.150 Kelvin.  Pressure   1.00000 Atm.
 Atom  1 has atomic number 14 and mass  27.97693
 Atom  2 has atomic number 14 and mass  27.97693
 Atom  3 has atomic number 14 and mass  27.97693
 Atom  4 has atomic number 14 and mass  27.97693
 Atom  5 has atomic number 14 and mass  27.97693
 Atom  6 has atomic number 14 and mass  27.97693
 Atom  7 has atomic number 14 and mass  27.97693
 Molecular mass:   195.83850 amu.
 Principal axes and moments of inertia in atomic units:
                           1         2         3
     EIGENVALUES --  1378.978551618.016442293.05566
           X            0.00000   0.00000   1.00000
           Y            1.00000   0.00000   0.00000
           Z            0.00000   1.00000   0.00000
 This molecule is an asymmetric top.
 Rotational symmetry number  2.
 Warning -- assumption of classical behavior for rotation
           may cause significant error
 Rotational temperatures (Kelvin)      0.06281     0.05353     0.03777
 Rotational constants (GHZ):           1.30875     1.11540     0.78705
 Zero-point vibrational energy      24820.0 (Joules/Mol)
                                    5.93211 (Kcal/Mol)
 Warning -- explicit consideration of  15 degrees of freedom as
           vibrations may cause significant error
 Vibrational temperatures:    161.49   167.55   208.91   323.77   328.77
          (Kelvin)            340.58   369.07   420.26   446.08   456.89
                              489.68   546.18   559.35   562.59   589.13
 
 Zero-point correction=                           0.009453 (Hartree/Particle)
 Thermal correction to Energy=                    0.019253
 Thermal correction to Enthalpy=                  0.020197
 Thermal correction to Gibbs Free Energy=        -0.026133
 Sum of electronic and zero-point Energies=          -2026.262599
 Sum of electronic and thermal Energies=             -2026.252800
 Sum of electronic and thermal Enthalpies=           -2026.251856
 Sum of electronic and thermal Free Energies=        -2026.298185
 
                     E (Thermal)             CV                S
                      KCal/Mol        Cal/Mol-Kelvin    Cal/Mol-Kelvin
 Total                   12.081             31.406             97.509
 Electronic               0.000              0.000              1.377
 Translational            0.889              2.981             41.722
 Rotational               0.889              2.981             28.638
 Vibrational             10.304             25.444             25.772
 Vibration  1             0.607              1.939              3.230
 Vibration  2             0.608              1.936              3.158
 Vibration  3             0.617              1.908              2.734
 Vibration  4             0.650              1.803              1.918
 Vibration  5             0.651              1.798              1.891
 Vibration  6             0.656              1.785              1.827
 Vibration  7             0.666              1.752              1.685
 Vibration  8             0.687              1.688              1.462
 Vibration  9             0.699              1.655              1.362
 Vibration 10             0.704              1.640              1.323
 Vibration 11             0.720              1.595              1.211
 Vibration 12             0.750              1.514              1.041
 Vibration 13             0.757              1.494              1.005
 Vibration 14             0.759              1.489              0.996
 Vibration 15             0.774              1.450              0.929
                       Q            Log10(Q)             Ln(Q)
 Total Bot       0.104743D+13         12.020125         27.677361
 Total V=0       0.233554D+17         16.368388         37.689606
 Vib (Bot)       0.120088D-01         -1.920501         -4.422117
 Vib (Bot)  1    0.182391D+01          0.261003          0.600981
 Vib (Bot)  2    0.175628D+01          0.244593          0.563196
 Vib (Bot)  3    0.139842D+01          0.145637          0.335342
 Vib (Bot)  4    0.877121D+00         -0.056941         -0.131111
 Vib (Bot)  5    0.862487D+00         -0.064248         -0.147936
 Vib (Bot)  6    0.829579D+00         -0.081142         -0.186837
 Vib (Bot)  7    0.758478D+00         -0.120057         -0.276441
 Vib (Bot)  8    0.653951D+00         -0.184455         -0.424723
 Vib (Bot)  9    0.609879D+00         -0.214756         -0.494494
 Vib (Bot) 10    0.592828D+00         -0.227072         -0.522852
 Vib (Bot) 11    0.545457D+00         -0.263240         -0.606132
 Vib (Bot) 12    0.476413D+00         -0.322017         -0.741471
 Vib (Bot) 13    0.462200D+00         -0.335170         -0.771758
 Vib (Bot) 14    0.458803D+00         -0.338374         -0.779135
 Vib (Bot) 15    0.432252D+00         -0.364263         -0.838746
 Vib (V=0)       0.267770D+03          2.427762          5.590128
 Vib (V=0)  1    0.239120D+01          0.378616          0.871795
 Vib (V=0)  2    0.232606D+01          0.366622          0.844177
 Vib (V=0)  3    0.198512D+01          0.297786          0.685679
 Vib (V=0)  4    0.150962D+01          0.178869          0.411861
 Vib (V=0)  5    0.149694D+01          0.175203          0.403421
 Vib (V=0)  6    0.146861D+01          0.166906          0.384315
 Vib (V=0)  7    0.140845D+01          0.148743          0.342493
 Vib (V=0)  8    0.132320D+01          0.121624          0.280050
 Vib (V=0)  9    0.128864D+01          0.110132          0.253587
 Vib (V=0) 10    0.127553D+01          0.105690          0.243361
 Vib (V=0) 11    0.123995D+01          0.093403          0.215069
 Vib (V=0) 12    0.119063D+01          0.075777          0.174482
 Vib (V=0) 13    0.118090D+01          0.072214          0.166279
 Vib (V=0) 14    0.117860D+01          0.071367          0.164328
 Vib (V=0) 15    0.116094D+01          0.064810          0.149230
 Electronic      0.200000D+01          0.301030          0.693147
 Translational   0.107721D+09          8.032302         18.495059
 Rotational      0.404850D+06          5.607294         12.911271
 ***** Axes restored to original set *****
 -------------------------------------------------------------------
 Center     Atomic                   Forces (Hartrees/Bohr)
 Number     Number              X              Y              Z
 -------------------------------------------------------------------
    1         14           0.000000000   -0.000249179   -0.000137565
    2         14           0.000000000    0.000000000    0.000094242
    3         14           0.000000000    0.000249179   -0.000137565
    4         14           0.000000000   -0.000120319    0.000117329
    5         14           0.000000000    0.000120319    0.000117329
    6         14           0.000050370    0.000000000   -0.000026885
    7         14          -0.000050370    0.000000000   -0.000026885
 -------------------------------------------------------------------
 Cartesian Forces:  Max     0.000249179 RMS     0.000105541

 GradGradGradGradGradGradGradGradGradGradGradGradGradGradGradGradGradGrad
 Berny optimization.
 Internal  Forces:  Max     0.000103109 RMS     0.000049873
 Search for a local minimum.
 Step number   1 out of a maximum of   2
 All quantities printed in internal units (Hartrees-Bohrs-Radians)
 Second derivative matrix not updated -- analytic derivatives used.
     Eigenvalues ---    0.00759   0.00934   0.01266   0.02246   0.02641
     Eigenvalues ---    0.02806   0.03516   0.03988   0.04104   0.04614
     Eigenvalues ---    0.04694   0.04864   0.05174   0.06271   0.06773
     Eigenvalues --- 1000.000001000.000001000.000001000.000001000.00000
     Eigenvalues --- 1000.000001000.000001000.000001000.000001000.00000
     Eigenvalues --- 1000.000001000.000001000.000001000.000001000.00000
     Eigenvalues --- 1000.000001000.000001000.000001000.000001000.00000
     Eigenvalues --- 1000.00000
 Angle between quadratic step and forces=  30.43 degrees.
 Linear search not attempted -- first point.
 Iteration  1 RMS(Cart)=  0.00163943 RMS(Int)=  0.00000237
 Iteration  2 RMS(Cart)=  0.00000133 RMS(Int)=  0.00000089
 Iteration  3 RMS(Cart)=  0.00000000 RMS(Int)=  0.00000089
 Variable       Old X    -DE/DX   Delta X   Delta X   Delta X     New X
                                 (Linear)    (Quad)   (Total)
    R1        4.49628  -0.00006   0.00000  -0.00212  -0.00212   4.49416
    R2        4.65885  -0.00010   0.00000  -0.00411  -0.00411   4.65474
    R3        4.92343  -0.00008   0.00000  -0.00245  -0.00245   4.92098
    R4        4.92343  -0.00008   0.00000  -0.00245  -0.00245   4.92098
    R5        4.49628  -0.00006   0.00000  -0.00212  -0.00212   4.49416
    R6        4.64934   0.00007   0.00000   0.00266   0.00266   4.65200
    R7        4.64934   0.00007   0.00000   0.00266   0.00266   4.65200
    R8        4.65885  -0.00010   0.00000  -0.00411  -0.00411   4.65474
    R9        4.92343  -0.00008   0.00000  -0.00245  -0.00245   4.92098
   R10        4.92343  -0.00008   0.00000  -0.00245  -0.00245   4.92098
   R11        5.46214   0.00010   0.00000   0.01029   0.01029   5.47242
   R12        4.67263  -0.00002   0.00000   0.00005   0.00005   4.67268
   R13        4.67263  -0.00002   0.00000   0.00005   0.00005   4.67268
   R14        4.67263  -0.00002   0.00000   0.00005   0.00005   4.67268
   R15        4.67263  -0.00002   0.00000   0.00005   0.00005   4.67268
   R16        5.01612   0.00000   0.00000  -0.00174  -0.00175   5.01437
    A1        1.84167   0.00006   0.00000   0.00237   0.00237   1.84404
    A2        2.09502  -0.00005   0.00000  -0.00140  -0.00140   2.09362
    A3        1.84167   0.00006   0.00000   0.00237   0.00237   1.84404
    A4        1.82321  -0.00003   0.00000  -0.00167  -0.00167   1.82154
    A5        1.82321  -0.00003   0.00000  -0.00167  -0.00167   1.82154
    A6        1.82499  -0.00003   0.00000  -0.00098  -0.00098   1.82401
    A7        1.97693   0.00000   0.00000   0.00088   0.00087   1.97780
    A8        1.79550  -0.00001   0.00000  -0.00018  -0.00018   1.79532
    A9        1.79550  -0.00001   0.00000  -0.00018  -0.00018   1.79532
   A10        1.97693   0.00000   0.00000   0.00088   0.00087   1.97780
   A11        1.82499  -0.00003   0.00000  -0.00098  -0.00098   1.82401
   A12        1.97693   0.00000   0.00000   0.00088   0.00087   1.97780
   A13        1.79550  -0.00001   0.00000  -0.00018  -0.00018   1.79532
   A14        1.79550  -0.00001   0.00000  -0.00018  -0.00018   1.79532
   A15        1.97693   0.00000   0.00000   0.00088   0.00087   1.97780
    D1        0.00000   0.00000   0.00000   0.00000   0.00000   0.00000
    D2        0.00000   0.00000   0.00000   0.00000   0.00000   0.00000
    D3        0.00000   0.00000   0.00000   0.00000   0.00000   0.00000
    D4        0.00000   0.00000   0.00000   0.00000   0.00000   0.00000
    D5        0.00000   0.00000   0.00000   0.00000   0.00000   0.00000
         Item               Value     Threshold  Converged?
 Maximum Force            0.000103     0.000450     YES
 RMS     Force            0.000050     0.000300     YES
 Maximum Displacement     0.005143     0.001800     NO 
 RMS     Displacement     0.001640     0.001200     NO 
 Predicted change in Energy=-1.885689D-06
 GradGradGradGradGradGradGradGradGradGradGradGradGradGradGradGradGradGrad

 1\1\GINC-NODE39\Freq\UB3LYP\6-311+G(d)\Si7(1+,2)\TAM\17-Jun-2011\0\\#N
  Geom=AllCheck Guess=Read SCRF=Check GenChk UB3LYP/6-311+G(d) Freq\\si
 7-c\\1,2\Si,0.,2.0609316828,0.7706126647\Si,0.,0.,1.9596338343\Si,0.,-
 2.0609316828,0.7706126647\Si,0.,-1.4452197226,-1.6166215398\Si,0.,1.44
 52197226,-1.6166215398\Si,-1.3272072279,0.,-0.1120125081\Si,1.32720722
 79,0.,-0.1120125081\\Version=AM64L-G03RevE.01\State=2-A1\HF=-2026.2720
 525\S2=0.760586\S2-1=0.\S2A=0.750076\RMSD=1.109e-09\RMSF=1.055e-04\Zer
 oPoint=0.0094534\Thermal=0.0192528\Dipole=0.,0.,0.2245062\DipoleDeriv=
 0.1872039,0.,0.,0.,0.4617458,0.1630212,0.,0.203419,0.086148,0.1609696,
 0.,0.,0.,0.0929249,0.,0.,0.,0.2466853,0.1872038,0.,0.,0.,0.4617458,-0.
 1630212,0.,-0.203419,0.086148,0.1547563,0.,0.,0.,0.3143218,0.3524501,0
 .,0.3501721,0.4973289,0.1547564,0.,0.,0.,0.3143218,-0.3524501,0.,-0.35
 01721,0.4973289,0.0775551,0.,0.058039,0.,-0.3225301,0.,0.0147316,0.,-0
 .2068195,0.0775551,0.,-0.058039,0.,-0.3225301,0.,-0.0147315,0.,-0.2068
 195\Polar=143.625719,0.0000009,223.9014203,0.0000004,0.0000001,201.689
 7955\PG=C02V [C2(Si1),SGV(Si4),SGV'(Si2)]\NImag=0\\0.01371917,0.,0.086
 15035,0.,-0.00142249,0.06425996,-0.00036053,0.,0.,0.02786705,0.,-0.042
 83141,0.02844565,0.,0.09699790,0.,0.02233006,-0.01895161,0.,0.,0.12141
 378,-0.00339773,0.,0.,-0.00036053,0.,0.,0.01371917,0.,-0.00956828,-0.0
 0337557,0.,-0.04283141,-0.02233006,0.,0.08615035,0.,0.00337557,0.00412
 777,0.,-0.02844565,-0.01895161,0.,0.00142249,0.06425996,-0.00454670,0.
 ,0.,-0.00137873,0.,0.,0.00026674,0.,0.,0.02111995,0.,-0.00538222,-0.00
 080582,0.,-0.00236121,0.00003090,0.,0.00408519,0.00560388,0.,0.0464765
 5,0.,-0.00420968,-0.00045746,0.,-0.00515258,-0.01262955,0.,0.01045281,
 -0.04158758,0.,0.03048418,0.08860843,0.00026674,0.,0.,-0.00137873,0.,0
 .,-0.00454670,0.,0.,0.00242864,0.,0.,0.02111995,0.,0.00408519,-0.00560
 388,0.,-0.00236121,-0.00003090,0.,-0.00538222,0.00080582,0.,-0.0125163
 0,-0.00013362,0.,0.04647655,0.,-0.01045281,-0.04158758,0.,0.00515258,-
 0.01262955,0.,0.00420968,-0.00045746,0.,0.00013362,-0.00506134,0.,-0.0
 3048418,0.08860843,-0.00284048,0.00086379,-0.00222923,-0.01219426,0.,-
 0.01333402,-0.00284048,-0.00086379,-0.00222923,-0.00894495,0.00900748,
 0.00948865,-0.00894495,-0.00900748,0.00948865,0.09240323,-0.01580009,-
 0.01622682,-0.00861895,0.,-0.00330633,0.,0.01580009,-0.01622682,0.0086
 1895,0.01391740,-0.01515101,-0.01572055,-0.01391740,-0.01515101,0.0157
 2055,0.,0.07271818,-0.00551868,-0.00481033,-0.00369554,-0.02293788,0.,
 -0.02912574,-0.00551868,0.00481033,-0.00369554,0.01581833,-0.01772338,
 -0.01443625,0.01581833,0.01772338,-0.01443625,0.00057689,0.,0.07219028
 ,-0.00284048,-0.00086379,0.00222923,-0.01219426,0.,0.01333402,-0.00284
 048,0.00086379,0.00222923,-0.00894495,-0.00900748,-0.00948865,-0.00894
 495,0.00900748,-0.00948865,-0.05663811,0.,0.00176170,0.09240323,0.0158
 0009,-0.01622682,-0.00861895,0.,-0.00330633,0.,-0.01580009,-0.01622682
 ,0.00861895,-0.01391740,-0.01515101,-0.01572055,0.01391740,-0.01515101
 ,0.01572055,0.,-0.00665619,0.,0.,0.07271818,0.00551868,-0.00481033,-0.
 00369554,0.02293788,0.,-0.02912574,0.00551868,0.00481033,-0.00369554,-
 0.01581833,-0.01772338,-0.01443625,-0.01581833,0.01772338,-0.01443625,
 -0.00176170,0.,-0.00680096,-0.00057689,0.,0.07219028\\0.,0.00024918,0.
 00013756,0.,0.,-0.00009424,0.,-0.00024918,0.00013756,0.,0.00012032,-0.
 00011733,0.,-0.00012032,-0.00011733,-0.00005037,0.,0.00002688,0.000050
 37,0.,0.00002688\\\@


 CHINESE FORTUNE COOKIE OF JAN 1 1967 SAY....
 ALL THINGS ARE DIFFICULT BEFORE THEY ARE EASY.
 WE LEARN SO LITTLE AND FORGET SO MUCH.
 YOU WILL OVERCOME OBSTACLES TO ACHIEVE SUCCESS.
 AH SO.
 Job cpu time:  0 days  0 hours 23 minutes 40.3 seconds.
 File lengths (MBytes):  RWF=    106 Int=      0 D2E=      0 Chk=      9 Scr=      1
 Normal termination of Gaussian 03 at Fri Jun 17 17:17:48 2011.
