 Entering Gaussian System, Link 0=g03
 Initial command:
 /usr/local/chem/g03E01/l1.exe /temp0/tam/Gau-6879.inp -scrdir=/temp0/tam/
 Entering Link 1 = /usr/local/chem/g03E01/l1.exe PID=      6880.
  
 Copyright (c) 1988,1990,1992,1993,1995,1998,2003,2004,2007, Gaussian, Inc.
                  All Rights Reserved.
  
 This is the Gaussian(R) 03 program.  It is based on the
 the Gaussian(R) 98 system (copyright 1998, Gaussian, Inc.),
 the Gaussian(R) 94 system (copyright 1995, Gaussian, Inc.),
 the Gaussian 92(TM) system (copyright 1992, Gaussian, Inc.),
 the Gaussian 90(TM) system (copyright 1990, Gaussian, Inc.),
 the Gaussian 88(TM) system (copyright 1988, Gaussian, Inc.),
 the Gaussian 86(TM) system (copyright 1986, Carnegie Mellon
 University), and the Gaussian 82(TM) system (copyright 1983,
 Carnegie Mellon University). Gaussian is a federally registered
 trademark of Gaussian, Inc.
  
 This software contains proprietary and confidential information,
 including trade secrets, belonging to Gaussian, Inc.
  
 This software is provided under written license and may be
 used, copied, transmitted, or stored only in accord with that
 written license.
  
 The following legend is applicable only to US Government
 contracts under FAR:
  
                    RESTRICTED RIGHTS LEGEND
  
 Use, reproduction and disclosure by the US Government is
 subject to restrictions as set forth in subparagraphs (a)
 and (c) of the Commercial Computer Software - Restricted
 Rights clause in FAR 52.227-19.
  
 Gaussian, Inc.
 340 Quinnipiac St., Bldg. 40, Wallingford CT 06492
  
  
 ---------------------------------------------------------------
 Warning -- This program may not be used in any manner that
 competes with the business of Gaussian, Inc. or will provide
 assistance to any competitor of Gaussian, Inc.  The licensee
 of this program is prohibited from giving any competitor of
 Gaussian, Inc. access to this program.  By using this program,
 the user acknowledges that Gaussian, Inc. is engaged in the
 business of creating and licensing software in the field of
 computational chemistry and represents and warrants to the
 licensee that it is not a competitor of Gaussian, Inc. and that
 it will not use this program in any manner prohibited above.
 ---------------------------------------------------------------
  

 Cite this work as:
 Gaussian 03, Revision E.01,
 M. J. Frisch, G. W. Trucks, H. B. Schlegel, G. E. Scuseria, 
 M. A. Robb, J. R. Cheeseman, J. A. Montgomery, Jr., T. Vreven, 
 K. N. Kudin, J. C. Burant, J. M. Millam, S. S. Iyengar, J. Tomasi, 
 V. Barone, B. Mennucci, M. Cossi, G. Scalmani, N. Rega, 
 G. A. Petersson, H. Nakatsuji, M. Hada, M. Ehara, K. Toyota, 
 R. Fukuda, J. Hasegawa, M. Ishida, T. Nakajima, Y. Honda, O. Kitao, 
 H. Nakai, M. Klene, X. Li, J. E. Knox, H. P. Hratchian, J. B. Cross, 
 V. Bakken, C. Adamo, J. Jaramillo, R. Gomperts, R. E. Stratmann, 
 O. Yazyev, A. J. Austin, R. Cammi, C. Pomelli, J. W. Ochterski, 
 P. Y. Ayala, K. Morokuma, G. A. Voth, P. Salvador, J. J. Dannenberg, 
 V. G. Zakrzewski, S. Dapprich, A. D. Daniels, M. C. Strain, 
 O. Farkas, D. K. Malick, A. D. Rabuck, K. Raghavachari, 
 J. B. Foresman, J. V. Ortiz, Q. Cui, A. G. Baboul, S. Clifford, 
 J. Cioslowski, B. B. Stefanov, G. Liu, A. Liashenko, P. Piskorz, 
 I. Komaromi, R. L. Martin, D. J. Fox, T. Keith, M. A. Al-Laham, 
 C. Y. Peng, A. Nanayakkara, M. Challacombe, P. M. W. Gill, 
 B. Johnson, W. Chen, M. W. Wong, C. Gonzalez, and J. A. Pople, 
 Gaussian, Inc., Wallingford CT, 2004.
 
 ******************************************
 Gaussian 03:  AM64L-G03RevE.01 11-Sep-2007
                 4-Apr-2011 
 ******************************************
 %NprocShared=4
 Will use up to    4 processors via shared memory.
 %mem=3750MB
 %chk=S9L-ne-d-01
 ----------------------------------------------------------------------
 # b3lyp/LANL2DZ opt=(calcall,noeigentest,maxcycle=500) scfcyc=500 scf=
 xqc
 ----------------------------------------------------------------------
 1/6=500,10=4,11=1,14=-1,18=20,26=3,38=1/1,3;
 2/9=110,17=6,18=5,40=1/2;
 3/5=6,6=3,11=2,16=1,25=1,30=1,74=-5/1,2,3;
 4//1;
 5/5=2,7=500,8=3,13=1,38=5/2,8;
 8/6=4,10=90,11=11/1;
 11/6=1,8=1,9=11,15=111,16=1/1,2,10;
 10/6=1/2;
 6/7=2,8=2,9=2,10=2,18=1,28=1/1;
 7/10=1,25=1/1,2,3,16;
 1/6=500,10=4,11=1,14=-1,18=20/3(3);
 2/9=110/2;
 7/8=1,9=1,25=1,44=-1/16;
 99//99;
 2/9=110/2;
 3/5=6,6=3,11=2,16=1,25=1,30=1,74=-5/1,2,3;
 4/5=5,16=3/1;
 5/5=2,7=500,8=3,13=1,38=5/2,8;
 8/6=4,10=90,11=11/1;
 11/6=1,8=1,9=11,15=111,16=1/1,2,10;
 10/6=1/2;
 7/10=1,25=1/1,2,3,16;
 1/6=500,10=4,11=1,14=-1,18=20/3(-8);
 2/9=110/2;
 6/7=2,8=2,9=2,10=2,18=1,19=2,28=1/1;
 7/8=1,9=1,25=1,44=-1/16;
 99//99;
 -----
 si7-n
 -----
 Symbolic Z-matrix:
 Charge =  0 Multiplicity = 1
 Si                    0.        2.0763    0.76428 
 Si                    0.        0.        2.20103 
 Si                    0.       -2.0763    0.76428 
 Si                    0.       -1.29584  -1.54605 
 Si                    0.        1.29584  -1.54605 
 Si                   -1.31042   0.        0.09272 
 Si                    1.31042   0.        0.09272 
 

 GradGradGradGradGradGradGradGradGradGradGradGradGradGradGradGradGradGrad
 Berny optimization.
 Initialization pass.
                           ----------------------------
                           !    Initial Parameters    !
                           ! (Angstroms and Degrees)  !
 --------------------------                            --------------------------
 ! Name  Definition              Value          Derivative Info.                !
 --------------------------------------------------------------------------------
 ! R1    R(1,2)                  2.5249         calculate D2E/DX2 analytically  !
 ! R2    R(1,5)                  2.4386         calculate D2E/DX2 analytically  !
 ! R3    R(1,6)                  2.5454         calculate D2E/DX2 analytically  !
 ! R4    R(1,7)                  2.5454         calculate D2E/DX2 analytically  !
 ! R5    R(2,3)                  2.5249         calculate D2E/DX2 analytically  !
 ! R6    R(2,6)                  2.4824         calculate D2E/DX2 analytically  !
 ! R7    R(2,7)                  2.4824         calculate D2E/DX2 analytically  !
 ! R8    R(3,4)                  2.4386         calculate D2E/DX2 analytically  !
 ! R9    R(3,6)                  2.5454         calculate D2E/DX2 analytically  !
 ! R10   R(3,7)                  2.5454         calculate D2E/DX2 analytically  !
 ! R11   R(4,5)                  2.5917         calculate D2E/DX2 analytically  !
 ! R12   R(4,6)                  2.4662         calculate D2E/DX2 analytically  !
 ! R13   R(4,7)                  2.4662         calculate D2E/DX2 analytically  !
 ! R14   R(5,6)                  2.4662         calculate D2E/DX2 analytically  !
 ! R15   R(5,7)                  2.4662         calculate D2E/DX2 analytically  !
 ! R16   R(6,7)                  2.6208         calculate D2E/DX2 analytically  !
 ! A1    A(2,1,5)              106.0168         calculate D2E/DX2 analytically  !
 ! A2    A(1,2,3)              110.6353         calculate D2E/DX2 analytically  !
 ! A3    A(2,3,4)              106.0168         calculate D2E/DX2 analytically  !
 ! A4    A(3,4,5)              108.6656         calculate D2E/DX2 analytically  !
 ! A5    A(1,5,4)              108.6656         calculate D2E/DX2 analytically  !
 ! A6    A(1,6,3)              109.3128         calculate D2E/DX2 analytically  !
 ! A7    A(1,6,4)              109.2914         calculate D2E/DX2 analytically  !
 ! A8    A(2,6,4)              106.4914         calculate D2E/DX2 analytically  !
 ! A9    A(2,6,5)              106.4914         calculate D2E/DX2 analytically  !
 ! A10   A(3,6,5)              109.2914         calculate D2E/DX2 analytically  !
 ! A11   A(1,7,3)              109.3128         calculate D2E/DX2 analytically  !
 ! A12   A(1,7,4)              109.2914         calculate D2E/DX2 analytically  !
 ! A13   A(2,7,4)              106.4914         calculate D2E/DX2 analytically  !
 ! A14   A(2,7,5)              106.4914         calculate D2E/DX2 analytically  !
 ! A15   A(3,7,5)              109.2914         calculate D2E/DX2 analytically  !
 ! D1    D(5,1,2,3)              0.0            calculate D2E/DX2 analytically  !
 ! D2    D(2,1,5,4)              0.0            calculate D2E/DX2 analytically  !
 ! D3    D(1,2,3,4)              0.0            calculate D2E/DX2 analytically  !
 ! D4    D(2,3,4,5)              0.0            calculate D2E/DX2 analytically  !
 ! D5    D(3,4,5,1)              0.0            calculate D2E/DX2 analytically  !
 --------------------------------------------------------------------------------
 Trust Radius=3.00D-01 FncErr=1.00D-07 GrdErr=1.00D-06
 Number of steps in this run= 100 maximum allowed number of steps= 100.
 GradGradGradGradGradGradGradGradGradGradGradGradGradGradGradGradGradGrad

                          Input orientation:                          
 ---------------------------------------------------------------------
 Center     Atomic     Atomic              Coordinates (Angstroms)
 Number     Number      Type              X           Y           Z
 ---------------------------------------------------------------------
    1         14             0        0.000000    2.076299    0.764277
    2         14             0        0.000000    0.000000    2.201028
    3         14             0        0.000000   -2.076299    0.764277
    4         14             0        0.000000   -1.295844   -1.546050
    5         14             0        0.000000    1.295844   -1.546050
    6         14             0       -1.310417    0.000000    0.092717
    7         14             0        1.310417    0.000000    0.092717
 ---------------------------------------------------------------------
                    Distance matrix (angstroms):
                    1          2          3          4          5
     1  Si   0.000000
     2  Si   2.524930   0.000000
     3  Si   4.152598   2.524930   0.000000
     4  Si   4.087659   3.964821   2.438590   0.000000
     5  Si   2.438590   3.964821   4.087659   2.591688   0.000000
     6  Si   2.545428   2.482371   2.545428   2.466163   2.466163
     7  Si   2.545428   2.482371   2.545428   2.466163   2.466163
                    6          7
     6  Si   0.000000
     7  Si   2.620834   0.000000
 Stoichiometry    Si7
 Framework group  C2V[C2(Si),SGV(Si4),SGV'(Si2)]
 Deg. of freedom     6
 Full point group                 C2V
 Largest Abelian subgroup         C2V     NOp   4
 Largest concise Abelian subgroup C2V     NOp   4
                         Standard orientation:                         
 ---------------------------------------------------------------------
 Center     Atomic     Atomic              Coordinates (Angstroms)
 Number     Number      Type              X           Y           Z
 ---------------------------------------------------------------------
    1         14             0        0.000000    2.076299    0.646718
    2         14             0        0.000000    0.000000    2.083469
    3         14             0        0.000000   -2.076299    0.646718
    4         14             0        0.000000   -1.295844   -1.663609
    5         14             0        0.000000    1.295844   -1.663609
    6         14             0       -1.310417    0.000000   -0.024842
    7         14             0        1.310417    0.000000   -0.024842
 ---------------------------------------------------------------------
 Rotational constants (GHZ):      1.2767850      1.1718662      0.7959798
 Standard basis: LANL2DZ (5D, 7F)
 There are    22 symmetry adapted basis functions of A1  symmetry.
 There are     6 symmetry adapted basis functions of A2  symmetry.
 There are    12 symmetry adapted basis functions of B1  symmetry.
 There are    16 symmetry adapted basis functions of B2  symmetry.
 Integral buffers will be    131072 words long.
 Raffenetti 2 integral format.
 Two-electron integral symmetry is turned on.
    56 basis functions,    84 primitive gaussians,    56 cartesian basis functions
    14 alpha electrons       14 beta electrons
       nuclear repulsion energy        64.4602187830 Hartrees.
 NAtoms=    7 NActive=    7 NUniq=    4 SFac= 2.30D+00 NAtFMM=   80 NAOKFM=F Big=F
 One-electron integrals computed using PRISM.
   4 Symmetry operations used in ECPInt.
 ECPInt:  NShTT=     406 NPrTT=     917 LenC2=     407 LenP2D=     906.
 LDataN:  DoStor=F MaxTD1= 3 Len=   28
 LDataN:  DoStor=T MaxTD1= 3 Len=   28
 NBasis=    56 RedAO= T  NBF=    22     6    12    16
 NBsUse=    56 1.00D-06 NBFU=    22     6    12    16
 Harris functional with IExCor=  402 diagonalized for initial guess.
 ExpMin= 8.85D-02 ExpMax= 2.58D+00 ExpMxC= 2.58D+00 IAcc=2 IRadAn=         4 AccDes= 0.00D+00
 HarFok:  IExCor= 402 AccDes= 0.00D+00 IRadAn=         4 IDoV=1
 ScaDFX=  1.000000  1.000000  1.000000  1.000000
 Initial guess orbital symmetries:
       Occupied  (A1) (B2) (A1) (B1) (A1) (B2) (A1) (A2) (B1) (A1)
                 (B2) (A1) (B2) (A1)
       Virtual   (B1) (A2) (B1) (B2) (A1) (B1) (A1) (B2) (A1) (B2)
                 (A2) (A1) (B1) (B2) (A1) (B1) (B2) (A1) (A1) (B2)
                 (B1) (A2) (A1) (B2) (A1) (A1) (B2) (A2) (B1) (B1)
                 (B2) (A1) (A2) (B1) (B2) (A1) (B2) (A1) (B1) (A1)
                 (B2) (A1)
 The electronic state of the initial guess is 1-A1.
 Requested convergence on RMS density matrix=1.00D-08 within 128 cycles.
 Requested convergence on MAX density matrix=1.00D-06.
 Requested convergence on             energy=1.00D-06.
 No special actions if energy rises.
 Keep R1 integrals in memory in canonical form, NReq=     3034676.
 Integral accuracy reduced to 1.0D-05 until final iterations.
 Initial convergence to 1.0D-05 achieved.  Increase integral accuracy.
 SCF Done:  E(RB+HF-LYP) =  -26.9664149880     A.U. after   14 cycles
             Convg  =    0.9183D-08             -V/T =  3.5573
             S**2   =   0.0000
 QCSCF skips out because SCF is already converged.
 Range of M.O.s used for correlation:     1    56
 NBasis=    56 NAE=    14 NBE=    14 NFC=     0 NFV=     0
 NROrb=     56 NOA=    14 NOB=    14 NVA=    42 NVB=    42
   4 Symmetry operations used in ECPInt.
 ECPInt:  NShTT=     406 NPrTT=     917 LenC2=     407 LenP2D=     906.
 LDataN:  DoStor=F MaxTD1= 4 Len=   56
 LDataN:  DoStor=T MaxTD1= 4 Len=   56
 Symmetrizing basis deriv contribution to polar:
 IMax=3 JMax=2 DiffMx= 0.00D+00
 G2DrvN: will do    8 centers at a time, making    1 passes doing MaxLOS=1.
 FoFDir/FoFCou used for L=0 through L=1.
 DoAtom=TTTTTTT
          Differentiating once with respect to electric field.
                with respect to dipole field.
          Differentiating once with respect to nuclear coordinates.
          Store integrals in memory, NReq=     2076634.
          There are  15 degrees of freedom in the 1st order CPHF.
    15 vectors were produced by pass  0.
 AX will form  15 AO Fock derivatives at one time.
    15 vectors were produced by pass  1.
    15 vectors were produced by pass  2.
    15 vectors were produced by pass  3.
    15 vectors were produced by pass  4.
    15 vectors were produced by pass  5.
    15 vectors were produced by pass  6.
     3 vectors were produced by pass  7.
     3 vectors were produced by pass  8.
 Inv2:  IOpt= 1 Iter= 1 AM= 1.37D-15 Conv= 1.00D-12.
 Inverted reduced A of dimension  111 with in-core refinement.
 Isotropic polarizability for W=    0.000000      199.76 Bohr**3.
 End of Minotr Frequency-dependent properties file   721 does not exist.

 **********************************************************************

            Population analysis using the SCF density.

 **********************************************************************

 Orbital symmetries:
       Occupied  (A1) (B2) (A1) (B1) (A1) (B2) (A1) (A2) (B1) (A1)
                 (B2) (A1) (B2) (A1)
       Virtual   (B1) (A2) (B1) (B2) (A1) (B1) (A1) (B2) (A1) (B2)
                 (A2) (A1) (B1) (B2) (A1) (B1) (A1) (B1) (B2) (A2)
                 (A1) (B2) (A1) (B2) (A1) (B2) (A1) (A2) (B1) (B1)
                 (B2) (A2) (A1) (B1) (B2) (A1) (B2) (A1) (B1) (A1)
                 (B2) (A1)
 The electronic state is 1-A1.
 Alpha  occ. eigenvalues --   -0.75732  -0.59667  -0.58054  -0.49946  -0.41810
 Alpha  occ. eigenvalues --   -0.40850  -0.38299  -0.31740  -0.31179  -0.28056
 Alpha  occ. eigenvalues --   -0.26743  -0.25802  -0.24685  -0.24309
 Alpha virt. eigenvalues --   -0.13380  -0.09824  -0.09706  -0.06515  -0.05890
 Alpha virt. eigenvalues --   -0.05818  -0.04508  -0.03447  -0.02195   0.00891
 Alpha virt. eigenvalues --    0.01440   0.01551   0.02848   0.09061   0.27582
 Alpha virt. eigenvalues --    0.28496   0.28782   0.28911   0.28938   0.28978
 Alpha virt. eigenvalues --    0.29338   0.30994   0.31859   0.32644   0.33045
 Alpha virt. eigenvalues --    0.33244   0.33698   0.34411   0.34452   0.36378
 Alpha virt. eigenvalues --    0.38461   0.39016   0.39628   0.40062   0.45061
 Alpha virt. eigenvalues --    9.37563  10.03079  10.07132  11.95899  12.07662
 Alpha virt. eigenvalues --   12.10052  14.83662
          Condensed to atoms (all electrons):
              1          2          3          4          5          6
     1  Si   3.964724   0.021793  -0.029336  -0.030396  -0.007633  -0.003131
     2  Si   0.021793   4.007688   0.021793  -0.040135  -0.040135  -0.014959
     3  Si  -0.029336   0.021793   3.964724  -0.007633  -0.030396  -0.003131
     4  Si  -0.030396  -0.040135  -0.007633   4.009552   0.027437  -0.013896
     5  Si  -0.007633  -0.040135  -0.030396   0.027437   4.009552  -0.013896
     6  Si  -0.003131  -0.014959  -0.003131  -0.013896  -0.013896   4.409140
     7  Si  -0.003131  -0.014959  -0.003131  -0.013896  -0.013896  -0.174595
              7
     1  Si  -0.003131
     2  Si  -0.014959
     3  Si  -0.003131
     4  Si  -0.013896
     5  Si  -0.013896
     6  Si  -0.174595
     7  Si   4.409140
 Mulliken atomic charges:
              1
     1  Si   0.087111
     2  Si   0.058913
     3  Si   0.087111
     4  Si   0.068965
     5  Si   0.068965
     6  Si  -0.185532
     7  Si  -0.185532
 Sum of Mulliken charges=   0.00000
 Atomic charges with hydrogens summed into heavy atoms:
              1
     1  Si   0.087111
     2  Si   0.058913
     3  Si   0.087111
     4  Si   0.068965
     5  Si   0.068965
     6  Si  -0.185532
     7  Si  -0.185532
 Sum of Mulliken charges=   0.00000
 APT atomic charges:
              1
     1  Si   0.097669
     2  Si   0.080756
     3  Si   0.097669
     4  Si   0.089215
     5  Si   0.089215
     6  Si  -0.227263
     7  Si  -0.227263
 Sum of APT charges=   0.00000
 APT Atomic charges with hydrogens summed into heavy atoms:
              1
     1  Si   0.097669
     2  Si   0.080756
     3  Si   0.097669
     4  Si   0.089215
     5  Si   0.089215
     6  Si  -0.227263
     7  Si  -0.227263
 Sum of APT charges=   0.00000
 Electronic spatial extent (au):  <R**2>=   572.1413
 Charge=     0.0000 electrons
 Dipole moment (field-independent basis, Debye):
    X=     0.0000    Y=     0.0000    Z=     0.1226  Tot=     0.1226
 Quadrupole moment (field-independent basis, Debye-Ang):
   XX=   -84.3684   YY=   -88.4976   ZZ=   -94.6796
   XY=     0.0000   XZ=     0.0000   YZ=     0.0000
 Traceless Quadrupole moment (field-independent basis, Debye-Ang):
   XX=     4.8135   YY=     0.6842   ZZ=    -5.4977
   XY=     0.0000   XZ=     0.0000   YZ=     0.0000
 Octapole moment (field-independent basis, Debye-Ang**2):
  XXX=     0.0000  YYY=     0.0000  ZZZ=     0.0544  XYY=     0.0000
  XXY=     0.0000  XXZ=     0.0904  XZZ=     0.0000  YZZ=     0.0000
  YYZ=     0.6012  XYZ=     0.0000
 Hexadecapole moment (field-independent basis, Debye-Ang**3):
 XXXX=  -434.4681 YYYY= -1090.7572 ZZZZ= -1062.4625 XXXY=     0.0000
 XXXZ=     0.0000 YYYX=     0.0000 YYYZ=     0.0000 ZZZX=     0.0000
 ZZZY=     0.0000 XXYY=  -225.9101 XXZZ=  -217.3537 YYZZ=  -359.6180
 XXYZ=     0.0000 YYXZ=     0.0000 ZZXY=     0.0000
 N-N= 6.446021878297D+01 E-N=-1.776525724335D+02  KE= 1.054487630345D+01
 Symmetry A1   KE= 5.070954633176D+00
 Symmetry A2   KE= 8.238526332799D-01
 Symmetry B1   KE= 1.511255418011D+00
 Symmetry B2   KE= 3.138813618982D+00
  Exact polarizability: 150.616   0.000 229.336   0.000   0.000 219.328
 Approx polarizability: 501.472   0.000 713.437   0.000   0.000 635.047
   4 Symmetry operations used in ECPInt.
 ECPInt:  NShTT=     406 NPrTT=     917 LenC2=     407 LenP2D=     917.
 LDataN:  DoStor=F MaxTD1= 5 Len=  102
 LDataN:  DoStor=T MaxTD1= 5 Len=  102
 ***** Axes restored to original set *****
 -------------------------------------------------------------------
 Center     Atomic                   Forces (Hartrees/Bohr)
 Number     Number              X              Y              Z
 -------------------------------------------------------------------
    1         14           0.000000000    0.017389841    0.012355029
    2         14           0.000000000    0.000000000    0.034101097
    3         14           0.000000000   -0.017389841    0.012355029
    4         14           0.000000000   -0.014042625   -0.033873978
    5         14           0.000000000    0.014042625   -0.033873978
    6         14          -0.029243271    0.000000000    0.004468401
    7         14           0.029243271    0.000000000    0.004468401
 -------------------------------------------------------------------
 Cartesian Forces:  Max     0.034101097 RMS     0.017610259

 GradGradGradGradGradGradGradGradGradGradGradGradGradGradGradGradGradGrad
 Berny optimization.
 Internal  Forces:  Max     0.016458819 RMS     0.007193511
 Search for a local minimum.
 Step number   1 out of a maximum of 100
 All quantities printed in internal units (Hartrees-Bohrs-Radians)
 Second derivative matrix not updated -- analytic derivatives used.
     Eigenvalues ---    0.01351   0.01533   0.02234   0.02578   0.03405
     Eigenvalues ---    0.03776   0.03994   0.04057   0.04716   0.05222
     Eigenvalues ---    0.05335   0.05338   0.05758   0.06476   0.07379
     Eigenvalues --- 1000.000001000.000001000.000001000.000001000.00000
     Eigenvalues --- 1000.000001000.000001000.000001000.000001000.00000
     Eigenvalues --- 1000.000001000.000001000.000001000.000001000.00000
     Eigenvalues --- 1000.000001000.000001000.000001000.000001000.00000
     Eigenvalues --- 1000.00000
 RFO step:  Lambda=-2.39668145D-02.
 Linear search not attempted -- first point.
 Maximum step size (   0.300) exceeded in Quadratic search.
    -- Step size scaled by   0.527
 Iteration  1 RMS(Cart)=  0.02683536 RMS(Int)=  0.00009912
 Iteration  2 RMS(Cart)=  0.00004057 RMS(Int)=  0.00008392
 Iteration  3 RMS(Cart)=  0.00000000 RMS(Int)=  0.00008392
 Variable       Old X    -DE/DX   Delta X   Delta X   Delta X     New X
                                 (Linear)    (Quad)   (Total)
    R1        4.77143   0.00843   0.00000   0.06025   0.06026   4.83169
    R2        4.60827   0.01646   0.00000   0.09640   0.09638   4.70465
    R3        4.81016   0.00419   0.00000   0.04667   0.04661   4.85677
    R4        4.81016   0.00419   0.00000   0.04667   0.04661   4.85677
    R5        4.77143   0.00843   0.00000   0.06025   0.06026   4.83169
    R6        4.69100   0.01266   0.00000   0.08595   0.08603   4.77703
    R7        4.69100   0.01266   0.00000   0.08595   0.08603   4.77703
    R8        4.60827   0.01646   0.00000   0.09640   0.09638   4.70465
    R9        4.81016   0.00419   0.00000   0.04667   0.04661   4.85677
   R10        4.81016   0.00419   0.00000   0.04667   0.04661   4.85677
   R11        4.89758   0.00501   0.00000   0.03563   0.03558   4.93316
   R12        4.66037   0.01299   0.00000   0.08908   0.08913   4.74950
   R13        4.66037   0.01299   0.00000   0.08908   0.08913   4.74950
   R14        4.66037   0.01299   0.00000   0.08908   0.08913   4.74950
   R15        4.66037   0.01299   0.00000   0.08908   0.08913   4.74950
   R16        4.95266   0.00581   0.00000   0.08116   0.08111   5.03377
    A1        1.85034   0.00276   0.00000   0.01259   0.01244   1.86278
    A2        1.93095  -0.00317   0.00000  -0.01577  -0.01561   1.91534
    A3        1.85034   0.00276   0.00000   0.01259   0.01244   1.86278
    A4        1.89657  -0.00118   0.00000  -0.00470  -0.00463   1.89194
    A5        1.89657  -0.00118   0.00000  -0.00470  -0.00463   1.89194
    A6        1.90787  -0.00057   0.00000  -0.00715  -0.00713   1.90074
    A7        1.90750   0.00003   0.00000  -0.00620  -0.00610   1.90139
    A8        1.85862   0.00252   0.00000   0.00719   0.00705   1.86567
    A9        1.85862   0.00252   0.00000   0.00719   0.00705   1.86567
   A10        1.90750   0.00003   0.00000  -0.00620  -0.00610   1.90139
   A11        1.90787  -0.00057   0.00000  -0.00715  -0.00713   1.90074
   A12        1.90750   0.00003   0.00000  -0.00620  -0.00610   1.90139
   A13        1.85862   0.00252   0.00000   0.00719   0.00705   1.86567
   A14        1.85862   0.00252   0.00000   0.00719   0.00705   1.86567
   A15        1.90750   0.00003   0.00000  -0.00620  -0.00610   1.90139
    D1        0.00000   0.00000   0.00000   0.00000   0.00000   0.00000
    D2        0.00000   0.00000   0.00000   0.00000   0.00000   0.00000
    D3        0.00000   0.00000   0.00000   0.00000   0.00000   0.00000
    D4        0.00000   0.00000   0.00000   0.00000   0.00000   0.00000
    D5        0.00000   0.00000   0.00000   0.00000   0.00000   0.00000
         Item               Value     Threshold  Converged?
 Maximum Force            0.016459     0.000450     NO 
 RMS     Force            0.007194     0.000300     NO 
 Maximum Displacement     0.087071     0.001800     NO 
 RMS     Displacement     0.026840     0.001200     NO 
 Predicted change in Energy=-1.038412D-02
 GradGradGradGradGradGradGradGradGradGradGradGradGradGradGradGradGradGrad

                          Input orientation:                          
 ---------------------------------------------------------------------
 Center     Atomic     Atomic              Coordinates (Angstroms)
 Number     Number      Type              X           Y           Z
 ---------------------------------------------------------------------
    1         14             0        0.000000    2.091104    0.775842
    2         14             0        0.000000    0.000000    2.247104
    3         14             0        0.000000   -2.091104    0.775842
    4         14             0        0.000000   -1.305258   -1.586468
    5         14             0        0.000000    1.305258   -1.586468
    6         14             0       -1.331879    0.000000    0.098532
    7         14             0        1.331879    0.000000    0.098532
 ---------------------------------------------------------------------
                    Distance matrix (angstroms):
                    1          2          3          4          5
     1  Si   0.000000
     2  Si   2.556819   0.000000
     3  Si   4.182208   2.556819   0.000000
     4  Si   4.137123   4.049688   2.489591   0.000000
     5  Si   2.489591   4.049688   4.137123   2.610516   0.000000
     6  Si   2.570091   2.527897   2.570091   2.513329   2.513329
     7  Si   2.570091   2.527897   2.570091   2.513329   2.513329
                    6          7
     6  Si   0.000000
     7  Si   2.663757   0.000000
 Stoichiometry    Si7
 Framework group  C2V[C2(Si),SGV(Si4),SGV'(Si2)]
 Deg. of freedom     6
 Full point group                 C2V
 Largest Abelian subgroup         C2V     NOp   4
 Largest concise Abelian subgroup C2V     NOp   4
                         Standard orientation:                         
 ---------------------------------------------------------------------
 Center     Atomic     Atomic              Coordinates (Angstroms)
 Number     Number      Type              X           Y           Z
 ---------------------------------------------------------------------
    1         14             0        0.000000    2.091104    0.658283
    2         14             0        0.000000    0.000000    2.129545
    3         14             0        0.000000   -2.091104    0.658283
    4         14             0        0.000000   -1.305258   -1.704027
    5         14             0        0.000000    1.305258   -1.704027
    6         14             0       -1.331879    0.000000   -0.019028
    7         14             0        1.331879    0.000000   -0.019028
 ---------------------------------------------------------------------
 Rotational constants (GHZ):      1.2240581      1.1505358      0.7732073
 Standard basis: LANL2DZ (5D, 7F)
 There are    22 symmetry adapted basis functions of A1  symmetry.
 There are     6 symmetry adapted basis functions of A2  symmetry.
 There are    12 symmetry adapted basis functions of B1  symmetry.
 There are    16 symmetry adapted basis functions of B2  symmetry.
 Integral buffers will be    131072 words long.
 Raffenetti 2 integral format.
 Two-electron integral symmetry is turned on.
    56 basis functions,    84 primitive gaussians,    56 cartesian basis functions
    14 alpha electrons       14 beta electrons
       nuclear repulsion energy        63.4969861748 Hartrees.
 NAtoms=    7 NActive=    7 NUniq=    4 SFac= 2.30D+00 NAtFMM=   80 NAOKFM=F Big=F
 One-electron integrals computed using PRISM.
   4 Symmetry operations used in ECPInt.
 ECPInt:  NShTT=     406 NPrTT=     917 LenC2=     407 LenP2D=     906.
 LDataN:  DoStor=F MaxTD1= 3 Len=   28
 LDataN:  DoStor=T MaxTD1= 3 Len=   28
 NBasis=    56 RedAO= T  NBF=    22     6    12    16
 NBsUse=    56 1.00D-06 NBFU=    22     6    12    16
 Initial guess read from the read-write file:
 Initial guess orbital symmetries:
       Occupied  (A1) (B2) (A1) (B1) (A1) (B2) (A1) (A2) (B1) (A1)
                 (B2) (A1) (B2) (A1)
       Virtual   (B1) (A2) (B1) (B2) (A1) (B1) (A1) (B2) (A1) (B2)
                 (A2) (A1) (B1) (B2) (A1) (B1) (A1) (B1) (B2) (A2)
                 (A1) (B2) (A1) (B2) (A1) (B2) (A1) (A2) (B1) (B1)
                 (B2) (A2) (A1) (B1) (B2) (A1) (B2) (A1) (B1) (A1)
                 (B2) (A1)
 Harris functional with IExCor=  402 diagonalized for initial guess.
 ExpMin= 8.85D-02 ExpMax= 2.58D+00 ExpMxC= 2.58D+00 IAcc=2 IRadAn=         4 AccDes= 0.00D+00
 HarFok:  IExCor= 402 AccDes= 0.00D+00 IRadAn=         4 IDoV=1
 ScaDFX=  1.000000  1.000000  1.000000  1.000000
 Requested convergence on RMS density matrix=1.00D-08 within 128 cycles.
 Requested convergence on MAX density matrix=1.00D-06.
 Requested convergence on             energy=1.00D-06.
 No special actions if energy rises.
 Keep R1 integrals in memory in canonical form, NReq=     3034676.
 Integral accuracy reduced to 1.0D-05 until final iterations.
 Initial convergence to 1.0D-05 achieved.  Increase integral accuracy.
 SCF Done:  E(RB+HF-LYP) =  -26.9769150782     A.U. after   14 cycles
             Convg  =    0.3988D-08             -V/T =  3.5925
             S**2   =   0.0000
 QCSCF skips out because SCF is already converged.
 Range of M.O.s used for correlation:     1    56
 NBasis=    56 NAE=    14 NBE=    14 NFC=     0 NFV=     0
 NROrb=     56 NOA=    14 NOB=    14 NVA=    42 NVB=    42
   4 Symmetry operations used in ECPInt.
 ECPInt:  NShTT=     406 NPrTT=     917 LenC2=     407 LenP2D=     906.
 LDataN:  DoStor=F MaxTD1= 4 Len=   56
 LDataN:  DoStor=T MaxTD1= 4 Len=   56
 Symmetrizing basis deriv contribution to polar:
 IMax=3 JMax=2 DiffMx= 0.00D+00
 G2DrvN: will do    8 centers at a time, making    1 passes doing MaxLOS=1.
 FoFDir/FoFCou used for L=0 through L=1.
 DoAtom=TTTTTTT
          Differentiating once with respect to electric field.
                with respect to dipole field.
          Differentiating once with respect to nuclear coordinates.
          Store integrals in memory, NReq=     2076634.
          There are  15 degrees of freedom in the 1st order CPHF.
    15 vectors were produced by pass  0.
 AX will form  15 AO Fock derivatives at one time.
    15 vectors were produced by pass  1.
    15 vectors were produced by pass  2.
    15 vectors were produced by pass  3.
    15 vectors were produced by pass  4.
    15 vectors were produced by pass  5.
    15 vectors were produced by pass  6.
     3 vectors were produced by pass  7.
     3 vectors were produced by pass  8.
 Inv2:  IOpt= 1 Iter= 1 AM= 2.68D-15 Conv= 1.00D-12.
 Inverted reduced A of dimension  111 with in-core refinement.
 Isotropic polarizability for W=    0.000000      204.54 Bohr**3.
 End of Minotr Frequency-dependent properties file   721 does not exist.
   4 Symmetry operations used in ECPInt.
 ECPInt:  NShTT=     406 NPrTT=     917 LenC2=     407 LenP2D=     917.
 LDataN:  DoStor=F MaxTD1= 5 Len=  102
 LDataN:  DoStor=T MaxTD1= 5 Len=  102
 ***** Axes restored to original set *****
 -------------------------------------------------------------------
 Center     Atomic                   Forces (Hartrees/Bohr)
 Number     Number              X              Y              Z
 -------------------------------------------------------------------
    1         14           0.000000000    0.011980424    0.008147533
    2         14           0.000000000    0.000000000    0.022437626
    3         14           0.000000000   -0.011980424    0.008147533
    4         14           0.000000000   -0.009220348   -0.022316361
    5         14           0.000000000    0.009220348   -0.022316361
    6         14          -0.020945351    0.000000000    0.002950014
    7         14           0.020945351    0.000000000    0.002950014
 -------------------------------------------------------------------
 Cartesian Forces:  Max     0.022437626 RMS     0.011920696

 GradGradGradGradGradGradGradGradGradGradGradGradGradGradGradGradGradGrad
 Berny optimization.
 Internal  Forces:  Max     0.010672555 RMS     0.004779387
 Search for a local minimum.
 Step number   2 out of a maximum of 100
 All quantities printed in internal units (Hartrees-Bohrs-Radians)
 Second derivative matrix not updated -- analytic derivatives used.
 Trust test= 1.01D+00 RLast= 3.00D-01 DXMaxT set to 4.24D-01
 Maximum step size (   0.424) exceeded in linear search.
    -- Step size scaled by   0.707
 Quintic linear search produced a step of  1.41422.
 Iteration  1 RMS(Cart)=  0.03788315 RMS(Int)=  0.00029299
 Iteration  2 RMS(Cart)=  0.00007732 RMS(Int)=  0.00027549
 Iteration  3 RMS(Cart)=  0.00000001 RMS(Int)=  0.00027549
 Variable       Old X    -DE/DX   Delta X   Delta X   Delta X     New X
                                 (Linear)    (Quad)   (Total)
    R1        4.83169   0.00558   0.08522   0.00000   0.08528   4.91697
    R2        4.70465   0.01067   0.13630   0.00000   0.13624   4.84088
    R3        4.85677   0.00312   0.06591   0.00000   0.06570   4.92246
    R4        4.85677   0.00312   0.06591   0.00000   0.06570   4.92246
    R5        4.83169   0.00558   0.08522   0.00000   0.08528   4.91697
    R6        4.77703   0.00839   0.12167   0.00000   0.12193   4.89897
    R7        4.77703   0.00839   0.12167   0.00000   0.12193   4.89897
    R8        4.70465   0.01067   0.13630   0.00000   0.13624   4.84088
    R9        4.85677   0.00312   0.06591   0.00000   0.06570   4.92246
   R10        4.85677   0.00312   0.06591   0.00000   0.06570   4.92246
   R11        4.93316   0.00324   0.05032   0.00000   0.05015   4.98331
   R12        4.74950   0.00867   0.12605   0.00000   0.12622   4.87572
   R13        4.74950   0.00867   0.12605   0.00000   0.12622   4.87572
   R14        4.74950   0.00867   0.12605   0.00000   0.12622   4.87572
   R15        4.74950   0.00867   0.12605   0.00000   0.12622   4.87572
   R16        5.03377   0.00475   0.11471   0.00000   0.11457   5.14834
    A1        1.86278   0.00166   0.01759   0.00000   0.01707   1.87985
    A2        1.91534  -0.00193  -0.02207   0.00000  -0.02153   1.89382
    A3        1.86278   0.00166   0.01759   0.00000   0.01707   1.87985
    A4        1.89194  -0.00070  -0.00655   0.00000  -0.00631   1.88563
    A5        1.89194  -0.00070  -0.00655   0.00000  -0.00631   1.88563
    A6        1.90074  -0.00047  -0.01008   0.00000  -0.01002   1.89072
    A7        1.90139  -0.00012  -0.00863   0.00000  -0.00829   1.89310
    A8        1.86567   0.00143   0.00997   0.00000   0.00951   1.87518
    A9        1.86567   0.00143   0.00997   0.00000   0.00951   1.87518
   A10        1.90139  -0.00012  -0.00863   0.00000  -0.00829   1.89310
   A11        1.90074  -0.00047  -0.01008   0.00000  -0.01002   1.89072
   A12        1.90139  -0.00012  -0.00863   0.00000  -0.00829   1.89310
   A13        1.86567   0.00143   0.00997   0.00000   0.00951   1.87518
   A14        1.86567   0.00143   0.00997   0.00000   0.00951   1.87518
   A15        1.90139  -0.00012  -0.00863   0.00000  -0.00829   1.89310
    D1        0.00000   0.00000   0.00000   0.00000   0.00000   0.00000
    D2        0.00000   0.00000   0.00000   0.00000   0.00000   0.00000
    D3        0.00000   0.00000   0.00000   0.00000   0.00000   0.00000
    D4        0.00000   0.00000   0.00000   0.00000   0.00000   0.00000
    D5        0.00000   0.00000   0.00000   0.00000   0.00000   0.00000
         Item               Value     Threshold  Converged?
 Maximum Force            0.010673     0.000450     NO 
 RMS     Force            0.004779     0.000300     NO 
 Maximum Displacement     0.123184     0.001800     NO 
 RMS     Displacement     0.037891     0.001200     NO 
 Predicted change in Energy=-8.143703D-03
 GradGradGradGradGradGradGradGradGradGradGradGradGradGradGradGradGradGrad

                          Input orientation:                          
 ---------------------------------------------------------------------
 Center     Atomic     Atomic              Coordinates (Angstroms)
 Number     Number      Type              X           Y           Z
 ---------------------------------------------------------------------
    1         14             0        0.000000    2.111774    0.792245
    2         14             0        0.000000    0.000000    2.312290
    3         14             0        0.000000   -2.111774    0.792245
    4         14             0        0.000000   -1.318527   -1.643529
    5         14             0        0.000000    1.318527   -1.643529
    6         14             0       -1.362192    0.000000    0.106597
    7         14             0        1.362192    0.000000    0.106597
 ---------------------------------------------------------------------
                    Distance matrix (angstroms):
                    1          2          3          4          5
     1  Si   0.000000
     2  Si   2.601947   0.000000
     3  Si   4.223548   2.601947   0.000000
     4  Si   4.207132   4.169774   2.561686   0.000000
     5  Si   2.561686   4.169774   4.207132   2.637054   0.000000
     6  Si   2.604855   2.592422   2.604855   2.580120   2.580120
     7  Si   2.604855   2.592422   2.604855   2.580120   2.580120
                    6          7
     6  Si   0.000000
     7  Si   2.724385   0.000000
 Stoichiometry    Si7
 Framework group  C2V[C2(Si),SGV(Si4),SGV'(Si2)]
 Deg. of freedom     6
 Full point group                 C2V
 Largest Abelian subgroup         C2V     NOp   4
 Largest concise Abelian subgroup C2V     NOp   4
                         Standard orientation:                         
 ---------------------------------------------------------------------
 Center     Atomic     Atomic              Coordinates (Angstroms)
 Number     Number      Type              X           Y           Z
 ---------------------------------------------------------------------
    1         14             0        0.000000    2.111774    0.674685
    2         14             0        0.000000    0.000000    2.194731
    3         14             0        0.000000   -2.111774    0.674685
    4         14             0        0.000000   -1.318527   -1.761088
    5         14             0        0.000000    1.318527   -1.761088
    6         14             0       -1.362192    0.000000   -0.010963
    7         14             0        1.362192    0.000000   -0.010963
 ---------------------------------------------------------------------
 Rotational constants (GHZ):      1.1548864      1.1214844      0.7425686
 Standard basis: LANL2DZ (5D, 7F)
 There are    22 symmetry adapted basis functions of A1  symmetry.
 There are     6 symmetry adapted basis functions of A2  symmetry.
 There are    12 symmetry adapted basis functions of B1  symmetry.
 There are    16 symmetry adapted basis functions of B2  symmetry.
 Integral buffers will be    131072 words long.
 Raffenetti 2 integral format.
 Two-electron integral symmetry is turned on.
    56 basis functions,    84 primitive gaussians,    56 cartesian basis functions
    14 alpha electrons       14 beta electrons
       nuclear repulsion energy        62.1875453615 Hartrees.
 NAtoms=    7 NActive=    7 NUniq=    4 SFac= 2.30D+00 NAtFMM=   80 NAOKFM=F Big=F
 One-electron integrals computed using PRISM.
   4 Symmetry operations used in ECPInt.
 ECPInt:  NShTT=     406 NPrTT=     917 LenC2=     407 LenP2D=     902.
 LDataN:  DoStor=F MaxTD1= 3 Len=   28
 LDataN:  DoStor=T MaxTD1= 3 Len=   28
 NBasis=    56 RedAO= T  NBF=    22     6    12    16
 NBsUse=    56 1.00D-06 NBFU=    22     6    12    16
 Initial guess read from the read-write file:
 Initial guess orbital symmetries:
       Occupied  (A1) (B2) (A1) (B1) (A1) (B2) (A1) (A2) (B1) (A1)
                 (B2) (A1) (B2) (A1)
       Virtual   (B1) (A2) (B1) (B2) (B1) (A1) (A1) (B2) (A1) (B2)
                 (A1) (A2) (B1) (B2) (B1) (A1) (A1) (B2) (A1) (B1)
                 (A2) (B2) (A1) (B2) (A1) (B2) (A1) (A2) (B1) (B1)
                 (B2) (A2) (B1) (A1) (B2) (A1) (B2) (A1) (A1) (B1)
                 (B2) (A1)
 Harris functional with IExCor=  402 diagonalized for initial guess.
 ExpMin= 8.85D-02 ExpMax= 2.58D+00 ExpMxC= 2.58D+00 IAcc=2 IRadAn=         4 AccDes= 0.00D+00
 HarFok:  IExCor= 402 AccDes= 0.00D+00 IRadAn=         4 IDoV=1
 ScaDFX=  1.000000  1.000000  1.000000  1.000000
 Requested convergence on RMS density matrix=1.00D-08 within 128 cycles.
 Requested convergence on MAX density matrix=1.00D-06.
 Requested convergence on             energy=1.00D-06.
 No special actions if energy rises.
 Keep R1 integrals in memory in canonical form, NReq=     3034676.
 Integral accuracy reduced to 1.0D-05 until final iterations.
 Initial convergence to 1.0D-05 achieved.  Increase integral accuracy.
 SCF Done:  E(RB+HF-LYP) =  -26.9853292314     A.U. after   14 cycles
             Convg  =    0.3656D-08             -V/T =  3.6395
             S**2   =   0.0000
 QCSCF skips out because SCF is already converged.
 Range of M.O.s used for correlation:     1    56
 NBasis=    56 NAE=    14 NBE=    14 NFC=     0 NFV=     0
 NROrb=     56 NOA=    14 NOB=    14 NVA=    42 NVB=    42
   4 Symmetry operations used in ECPInt.
 ECPInt:  NShTT=     406 NPrTT=     917 LenC2=     407 LenP2D=     902.
 LDataN:  DoStor=F MaxTD1= 4 Len=   56
 LDataN:  DoStor=T MaxTD1= 4 Len=   56
 Symmetrizing basis deriv contribution to polar:
 IMax=3 JMax=2 DiffMx= 0.00D+00
 G2DrvN: will do    8 centers at a time, making    1 passes doing MaxLOS=1.
 FoFDir/FoFCou used for L=0 through L=1.
 DoAtom=TTTTTTT
          Differentiating once with respect to electric field.
                with respect to dipole field.
          Differentiating once with respect to nuclear coordinates.
          Store integrals in memory, NReq=     2076634.
          There are  15 degrees of freedom in the 1st order CPHF.
    15 vectors were produced by pass  0.
 AX will form  15 AO Fock derivatives at one time.
    15 vectors were produced by pass  1.
    15 vectors were produced by pass  2.
    15 vectors were produced by pass  3.
    15 vectors were produced by pass  4.
    15 vectors were produced by pass  5.
    15 vectors were produced by pass  6.
     3 vectors were produced by pass  7.
     3 vectors were produced by pass  8.
 Inv2:  IOpt= 1 Iter= 1 AM= 1.44D-15 Conv= 1.00D-12.
 Inverted reduced A of dimension  111 with in-core refinement.
 Isotropic polarizability for W=    0.000000      211.26 Bohr**3.
 End of Minotr Frequency-dependent properties file   721 does not exist.
   4 Symmetry operations used in ECPInt.
 ECPInt:  NShTT=     406 NPrTT=     917 LenC2=     407 LenP2D=     917.
 LDataN:  DoStor=F MaxTD1= 5 Len=  102
 LDataN:  DoStor=T MaxTD1= 5 Len=  102
 ***** Axes restored to original set *****
 -------------------------------------------------------------------
 Center     Atomic                   Forces (Hartrees/Bohr)
 Number     Number              X              Y              Z
 -------------------------------------------------------------------
    1         14           0.000000000    0.005342558    0.003578439
    2         14           0.000000000    0.000000000    0.008398469
    3         14           0.000000000   -0.005342558    0.003578439
    4         14           0.000000000   -0.003275149   -0.009095120
    5         14           0.000000000    0.003275149   -0.009095120
    6         14          -0.011042860    0.000000000    0.001317447
    7         14           0.011042860    0.000000000    0.001317447
 -------------------------------------------------------------------
 Cartesian Forces:  Max     0.011042860 RMS     0.005289194

 GradGradGradGradGradGradGradGradGradGradGradGradGradGradGradGradGradGrad
 Berny optimization.
 Internal  Forces:  Max     0.004206026 RMS     0.002011563
 Search for a local minimum.
 Step number   3 out of a maximum of 100
 All quantities printed in internal units (Hartrees-Bohrs-Radians)
 Second derivative matrix not updated -- analytic derivatives used.
     Eigenvalues ---    0.00969   0.00985   0.01202   0.02030   0.02342
     Eigenvalues ---    0.02530   0.02678   0.02923   0.03472   0.03534
     Eigenvalues ---    0.03579   0.03620   0.04734   0.04844   0.05541
     Eigenvalues --- 1000.000001000.000001000.000001000.000001000.00000
     Eigenvalues --- 1000.000001000.000001000.000001000.000001000.00000
     Eigenvalues --- 1000.000001000.000001000.000001000.000001000.00000
     Eigenvalues --- 1000.000001000.000001000.000001000.000001000.00000
     Eigenvalues --- 1000.00000
 RFO step:  Lambda=-4.52342455D-04.
 Quintic linear search produced a step of  0.91327.
 Iteration  1 RMS(Cart)=  0.03500365 RMS(Int)=  0.00028965
 Iteration  2 RMS(Cart)=  0.00006432 RMS(Int)=  0.00027502
 Iteration  3 RMS(Cart)=  0.00000000 RMS(Int)=  0.00027502
 Variable       Old X    -DE/DX   Delta X   Delta X   Delta X     New X
                                 (Linear)    (Quad)   (Total)
    R1        4.91697   0.00201   0.07788  -0.00652   0.07123   4.98820
    R2        4.84088   0.00421   0.12442  -0.00460   0.11956   4.96044
    R3        4.92246   0.00172   0.06000   0.02490   0.08485   5.00731
    R4        4.92246   0.00172   0.06000   0.02490   0.08485   5.00731
    R5        4.91697   0.00201   0.07788  -0.00652   0.07123   4.98820
    R6        4.89897   0.00330   0.11136  -0.00638   0.10524   5.00421
    R7        4.89897   0.00330   0.11136  -0.00638   0.10524   5.00421
    R8        4.84088   0.00421   0.12442  -0.00460   0.11956   4.96044
    R9        4.92246   0.00172   0.06000   0.02490   0.08485   5.00731
   R10        4.92246   0.00172   0.06000   0.02490   0.08485   5.00731
   R11        4.98331   0.00079   0.04580  -0.02933   0.01606   4.99937
   R12        4.87572   0.00368   0.11527   0.00583   0.12134   4.99706
   R13        4.87572   0.00368   0.11527   0.00583   0.12134   4.99706
   R14        4.87572   0.00368   0.11527   0.00583   0.12134   4.99706
   R15        4.87572   0.00368   0.11527   0.00583   0.12134   4.99706
   R16        5.14834   0.00348   0.10463   0.07059   0.17514   5.32348
    A1        1.87985   0.00047   0.01559  -0.01073   0.00456   1.88441
    A2        1.89382  -0.00056  -0.01966   0.01032  -0.00897   1.88484
    A3        1.87985   0.00047   0.01559  -0.01073   0.00456   1.88441
    A4        1.88563  -0.00019  -0.00576   0.00557  -0.00007   1.88556
    A5        1.88563  -0.00019  -0.00576   0.00557  -0.00007   1.88556
    A6        1.89072  -0.00039  -0.00915  -0.00739  -0.01634   1.87438
    A7        1.89310  -0.00031  -0.00758  -0.01275  -0.01975   1.87335
    A8        1.87518   0.00025   0.00869  -0.01362  -0.00517   1.87001
    A9        1.87518   0.00025   0.00869  -0.01362  -0.00517   1.87001
   A10        1.89310  -0.00031  -0.00758  -0.01275  -0.01975   1.87335
   A11        1.89072  -0.00039  -0.00915  -0.00739  -0.01634   1.87438
   A12        1.89310  -0.00031  -0.00758  -0.01275  -0.01975   1.87335
   A13        1.87518   0.00025   0.00869  -0.01362  -0.00517   1.87001
   A14        1.87518   0.00025   0.00869  -0.01362  -0.00517   1.87001
   A15        1.89310  -0.00031  -0.00758  -0.01275  -0.01975   1.87335
    D1        0.00000   0.00000   0.00000   0.00000   0.00000   0.00000
    D2        0.00000   0.00000   0.00000   0.00000   0.00000   0.00000
    D3        0.00000   0.00000   0.00000   0.00000   0.00000   0.00000
    D4        0.00000   0.00000   0.00000   0.00000   0.00000   0.00000
    D5        0.00000   0.00000   0.00000   0.00000   0.00000   0.00000
         Item               Value     Threshold  Converged?
 Maximum Force            0.004206     0.000450     NO 
 RMS     Force            0.002012     0.000300     NO 
 Maximum Displacement     0.087568     0.001800     NO 
 RMS     Displacement     0.035004     0.001200     NO 
 Predicted change in Energy=-2.232970D-03
 GradGradGradGradGradGradGradGradGradGradGradGradGradGradGradGradGradGrad

                          Input orientation:                          
 ---------------------------------------------------------------------
 Center     Atomic     Atomic              Coordinates (Angstroms)
 Number     Number      Type              X           Y           Z
 ---------------------------------------------------------------------
    1         14             0        0.000000    2.135429    0.806400
    2         14             0        0.000000    0.000000    2.358062
    3         14             0        0.000000   -2.135429    0.806400
    4         14             0        0.000000   -1.322777   -1.689592
    5         14             0        0.000000    1.322777   -1.689592
    6         14             0       -1.408532    0.000000    0.115618
    7         14             0        1.408532    0.000000    0.115618
 ---------------------------------------------------------------------
                    Distance matrix (angstroms):
                    1          2          3          4          5
     1  Si   0.000000
     2  Si   2.639642   0.000000
     3  Si   4.270858   2.639642   0.000000
     4  Si   4.264876   4.258314   2.624953   0.000000
     5  Si   2.624953   4.258314   4.264876   2.645554   0.000000
     6  Si   2.649754   2.648115   2.649754   2.644330   2.644330
     7  Si   2.649754   2.648115   2.649754   2.644330   2.644330
                    6          7
     6  Si   0.000000
     7  Si   2.817063   0.000000
 Stoichiometry    Si7
 Framework group  C2V[C2(Si),SGV(Si4),SGV'(Si2)]
 Deg. of freedom     6
 Full point group                 C2V
 Largest Abelian subgroup         C2V     NOp   4
 Largest concise Abelian subgroup C2V     NOp   4
                         Standard orientation:                         
 ---------------------------------------------------------------------
 Center     Atomic     Atomic              Coordinates (Angstroms)
 Number     Number      Type              X           Y           Z
 ---------------------------------------------------------------------
    1         14             0        0.000000    2.135429    0.688841
    2         14             0        0.000000    0.000000    2.240502
    3         14             0        0.000000   -2.135429    0.688841
    4         14             0        0.000000   -1.322777   -1.807151
    5         14             0        0.000000    1.322777   -1.807151
    6         14             0       -1.408532    0.000000   -0.001941
    7         14             0        1.408532    0.000000   -0.001941
 ---------------------------------------------------------------------
 Rotational constants (GHZ):      1.0968986      1.0890200      0.7191124
 Standard basis: LANL2DZ (5D, 7F)
 There are    22 symmetry adapted basis functions of A1  symmetry.
 There are     6 symmetry adapted basis functions of A2  symmetry.
 There are    12 symmetry adapted basis functions of B1  symmetry.
 There are    16 symmetry adapted basis functions of B2  symmetry.
 Integral buffers will be    131072 words long.
 Raffenetti 2 integral format.
 Two-electron integral symmetry is turned on.
    56 basis functions,    84 primitive gaussians,    56 cartesian basis functions
    14 alpha electrons       14 beta electrons
       nuclear repulsion energy        60.9851662436 Hartrees.
 NAtoms=    7 NActive=    7 NUniq=    4 SFac= 2.30D+00 NAtFMM=   80 NAOKFM=F Big=F
 One-electron integrals computed using PRISM.
   4 Symmetry operations used in ECPInt.
 ECPInt:  NShTT=     406 NPrTT=     917 LenC2=     407 LenP2D=     902.
 LDataN:  DoStor=F MaxTD1= 3 Len=   28
 LDataN:  DoStor=T MaxTD1= 3 Len=   28
 NBasis=    56 RedAO= T  NBF=    22     6    12    16
 NBsUse=    56 1.00D-06 NBFU=    22     6    12    16
 Initial guess read from the read-write file:
 Initial guess orbital symmetries:
       Occupied  (A1) (B2) (A1) (B1) (A1) (B2) (A1) (A2) (B1) (A1)
                 (B2) (A1) (B2) (A1)
       Virtual   (B1) (A2) (B1) (B2) (B1) (A1) (A1) (B2) (A1) (B2)
                 (A1) (A2) (B1) (B2) (B1) (A1) (B2) (A1) (B2) (A2)
                 (B1) (A1) (A1) (B2) (A1) (B2) (A2) (B1) (A1) (B1)
                 (A2) (B1) (B2) (A1) (B2) (A1) (B2) (A1) (A1) (B2)
                 (B1) (A1)
 Harris functional with IExCor=  402 diagonalized for initial guess.
 ExpMin= 8.85D-02 ExpMax= 2.58D+00 ExpMxC= 2.58D+00 IAcc=2 IRadAn=         4 AccDes= 0.00D+00
 HarFok:  IExCor= 402 AccDes= 0.00D+00 IRadAn=         4 IDoV=1
 ScaDFX=  1.000000  1.000000  1.000000  1.000000
 Requested convergence on RMS density matrix=1.00D-08 within 128 cycles.
 Requested convergence on MAX density matrix=1.00D-06.
 Requested convergence on             energy=1.00D-06.
 No special actions if energy rises.
 Keep R1 integrals in memory in canonical form, NReq=     3034676.
 Integral accuracy reduced to 1.0D-05 until final iterations.
 Initial convergence to 1.0D-05 achieved.  Increase integral accuracy.
 SCF Done:  E(RB+HF-LYP) =  -26.9877353730     A.U. after   14 cycles
             Convg  =    0.4556D-08             -V/T =  3.6814
             S**2   =   0.0000
 QCSCF skips out because SCF is already converged.
 Range of M.O.s used for correlation:     1    56
 NBasis=    56 NAE=    14 NBE=    14 NFC=     0 NFV=     0
 NROrb=     56 NOA=    14 NOB=    14 NVA=    42 NVB=    42
   4 Symmetry operations used in ECPInt.
 ECPInt:  NShTT=     406 NPrTT=     917 LenC2=     407 LenP2D=     902.
 LDataN:  DoStor=F MaxTD1= 4 Len=   56
 LDataN:  DoStor=T MaxTD1= 4 Len=   56
 Symmetrizing basis deriv contribution to polar:
 IMax=3 JMax=2 DiffMx= 0.00D+00
 G2DrvN: will do    8 centers at a time, making    1 passes doing MaxLOS=1.
 FoFDir/FoFCou used for L=0 through L=1.
 DoAtom=TTTTTTT
          Differentiating once with respect to electric field.
                with respect to dipole field.
          Differentiating once with respect to nuclear coordinates.
          Store integrals in memory, NReq=     2076634.
          There are  15 degrees of freedom in the 1st order CPHF.
    15 vectors were produced by pass  0.
 AX will form  15 AO Fock derivatives at one time.
    15 vectors were produced by pass  1.
    15 vectors were produced by pass  2.
    15 vectors were produced by pass  3.
    15 vectors were produced by pass  4.
    15 vectors were produced by pass  5.
    15 vectors were produced by pass  6.
     3 vectors were produced by pass  7.
     3 vectors were produced by pass  8.
 Inv2:  IOpt= 1 Iter= 1 AM= 1.46D-15 Conv= 1.00D-12.
 Inverted reduced A of dimension  111 with in-core refinement.
 Isotropic polarizability for W=    0.000000      217.47 Bohr**3.
 End of Minotr Frequency-dependent properties file   721 does not exist.
   4 Symmetry operations used in ECPInt.
 ECPInt:  NShTT=     406 NPrTT=     917 LenC2=     407 LenP2D=     917.
 LDataN:  DoStor=F MaxTD1= 5 Len=  102
 LDataN:  DoStor=T MaxTD1= 5 Len=  102
 ***** Axes restored to original set *****
 -------------------------------------------------------------------
 Center     Atomic                   Forces (Hartrees/Bohr)
 Number     Number              X              Y              Z
 -------------------------------------------------------------------
    1         14           0.000000000   -0.000516503    0.000362822
    2         14           0.000000000    0.000000000   -0.000244830
    3         14           0.000000000    0.000516503    0.000362822
    4         14           0.000000000    0.000330839   -0.000560385
    5         14           0.000000000   -0.000330839   -0.000560385
    6         14           0.000566405    0.000000000    0.000319978
    7         14          -0.000566405    0.000000000    0.000319978
 -------------------------------------------------------------------
 Cartesian Forces:  Max     0.000566405 RMS     0.000348476

 GradGradGradGradGradGradGradGradGradGradGradGradGradGradGradGradGradGrad
 Berny optimization.
 Internal  Forces:  Max     0.000402247 RMS     0.000167565
 Search for a local minimum.
 Step number   4 out of a maximum of 100
 All quantities printed in internal units (Hartrees-Bohrs-Radians)
 Second derivative matrix not updated -- analytic derivatives used.
 Trust test= 1.08D+00 RLast= 4.26D-01 DXMaxT set to 6.00D-01
     Eigenvalues ---    0.00811   0.00818   0.00837   0.01860   0.01889
     Eigenvalues ---    0.01955   0.02018   0.02465   0.02812   0.02817
     Eigenvalues ---    0.03015   0.03042   0.04228   0.04253   0.04937
     Eigenvalues --- 1000.000001000.000001000.000001000.000001000.00000
     Eigenvalues --- 1000.000001000.000001000.000001000.000001000.00000
     Eigenvalues --- 1000.000001000.000001000.000001000.000001000.00000
     Eigenvalues --- 1000.000001000.000001000.000001000.000001000.00000
     Eigenvalues --- 1000.00000
 RFO step:  Lambda=-3.99140474D-05.
 Quintic linear search produced a step of -0.00953.
 Iteration  1 RMS(Cart)=  0.00460201 RMS(Int)=  0.00001161
 Iteration  2 RMS(Cart)=  0.00000595 RMS(Int)=  0.00000463
 Iteration  3 RMS(Cart)=  0.00000000 RMS(Int)=  0.00000463
 Variable       Old X    -DE/DX   Delta X   Delta X   Delta X     New X
                                 (Linear)    (Quad)   (Total)
    R1        4.98820  -0.00021  -0.00068  -0.00898  -0.00966   4.97854
    R2        4.96044   0.00040  -0.00114   0.01874   0.01759   4.97804
    R3        5.00731  -0.00027  -0.00081  -0.00745  -0.00825   4.99906
    R4        5.00731  -0.00027  -0.00081  -0.00745  -0.00825   4.99906
    R5        4.98820  -0.00021  -0.00068  -0.00898  -0.00966   4.97854
    R6        5.00421  -0.00004  -0.00100  -0.00426  -0.00525   4.99896
    R7        5.00421  -0.00004  -0.00100  -0.00426  -0.00525   4.99896
    R8        4.96044   0.00040  -0.00114   0.01874   0.01759   4.97804
    R9        5.00731  -0.00027  -0.00081  -0.00745  -0.00825   4.99906
   R10        5.00731  -0.00027  -0.00081  -0.00745  -0.00825   4.99906
   R11        4.99937  -0.00033  -0.00015  -0.02131  -0.02147   4.97790
   R12        4.99706   0.00010  -0.00116   0.00345   0.00230   4.99936
   R13        4.99706   0.00010  -0.00116   0.00345   0.00230   4.99936
   R14        4.99706   0.00010  -0.00116   0.00345   0.00230   4.99936
   R15        4.99706   0.00010  -0.00116   0.00345   0.00230   4.99936
   R16        5.32348  -0.00030  -0.00167  -0.00813  -0.00981   5.31366
    A1        1.88441   0.00007  -0.00004   0.00059   0.00054   1.88495
    A2        1.88484  -0.00005   0.00009  -0.00009  -0.00001   1.88484
    A3        1.88441   0.00007  -0.00004   0.00059   0.00054   1.88495
    A4        1.88556  -0.00004   0.00000  -0.00054  -0.00054   1.88502
    A5        1.88556  -0.00004   0.00000  -0.00054  -0.00054   1.88502
    A6        1.87438  -0.00002   0.00016  -0.00095  -0.00080   1.87358
    A7        1.87335   0.00002   0.00019  -0.00017   0.00002   1.87337
    A8        1.87001   0.00011   0.00005   0.00345   0.00349   1.87350
    A9        1.87001   0.00011   0.00005   0.00345   0.00349   1.87350
   A10        1.87335   0.00002   0.00019  -0.00017   0.00002   1.87337
   A11        1.87438  -0.00002   0.00016  -0.00095  -0.00080   1.87358
   A12        1.87335   0.00002   0.00019  -0.00017   0.00002   1.87337
   A13        1.87001   0.00011   0.00005   0.00345   0.00349   1.87350
   A14        1.87001   0.00011   0.00005   0.00345   0.00349   1.87350
   A15        1.87335   0.00002   0.00019  -0.00017   0.00002   1.87337
    D1        0.00000   0.00000   0.00000   0.00000   0.00000   0.00000
    D2        0.00000   0.00000   0.00000   0.00000   0.00000   0.00000
    D3        0.00000   0.00000   0.00000   0.00000   0.00000   0.00000
    D4        0.00000   0.00000   0.00000   0.00000   0.00000   0.00000
    D5        0.00000   0.00000   0.00000   0.00000   0.00000   0.00000
         Item               Value     Threshold  Converged?
 Maximum Force            0.000402     0.000450     YES
 RMS     Force            0.000168     0.000300     YES
 Maximum Displacement     0.011004     0.001800     NO 
 RMS     Displacement     0.004601     0.001200     NO 
 Predicted change in Energy=-2.006594D-05
 GradGradGradGradGradGradGradGradGradGradGradGradGradGradGradGradGradGrad

                          Input orientation:                          
 ---------------------------------------------------------------------
 Center     Atomic     Atomic              Coordinates (Angstroms)
 Number     Number      Type              X           Y           Z
 ---------------------------------------------------------------------
    1         14             0        0.000000    2.131287    0.809868
    2         14             0        0.000000    0.000000    2.358530
    3         14             0        0.000000   -2.131287    0.809868
    4         14             0        0.000000   -1.317097   -1.695415
    5         14             0        0.000000    1.317097   -1.695415
    6         14             0       -1.405935    0.000000    0.117740
    7         14             0        1.405935    0.000000    0.117740
 ---------------------------------------------------------------------
                    Distance matrix (angstroms):
                    1          2          3          4          5
     1  Si   0.000000
     2  Si   2.634528   0.000000
     3  Si   4.262573   2.634528   0.000000
     4  Si   4.262369   4.262535   2.634264   0.000000
     5  Si   2.634264   4.262535   4.262369   2.634193   0.000000
     6  Si   2.645388   2.645334   2.645388   2.645548   2.645548
     7  Si   2.645388   2.645334   2.645388   2.645548   2.645548
                    6          7
     6  Si   0.000000
     7  Si   2.811869   0.000000
 Stoichiometry    Si7
 Framework group  C2V[C2(Si),SGV(Si4),SGV'(Si2)]
 Deg. of freedom     6
 Full point group                 C2V
 Largest Abelian subgroup         C2V     NOp   4
 Largest concise Abelian subgroup C2V     NOp   4
                         Standard orientation:                         
 ---------------------------------------------------------------------
 Center     Atomic     Atomic              Coordinates (Angstroms)
 Number     Number      Type              X           Y           Z
 ---------------------------------------------------------------------
    1         14             0        0.000000    2.131287    0.692309
    2         14             0        0.000000    0.000000    2.240970
    3         14             0        0.000000   -2.131287    0.692309
    4         14             0        0.000000   -1.317097   -1.812974
    5         14             0        0.000000    1.317097   -1.812974
    6         14             0       -1.405935    0.000000    0.000180
    7         14             0        1.405935    0.000000    0.000180
 ---------------------------------------------------------------------
 Rotational constants (GHZ):      1.0942948      1.0942930      0.7194421
 Standard basis: LANL2DZ (5D, 7F)
 There are    22 symmetry adapted basis functions of A1  symmetry.
 There are     6 symmetry adapted basis functions of A2  symmetry.
 There are    12 symmetry adapted basis functions of B1  symmetry.
 There are    16 symmetry adapted basis functions of B2  symmetry.
 Integral buffers will be    131072 words long.
 Raffenetti 2 integral format.
 Two-electron integral symmetry is turned on.
    56 basis functions,    84 primitive gaussians,    56 cartesian basis functions
    14 alpha electrons       14 beta electrons
       nuclear repulsion energy        61.0183470863 Hartrees.
 NAtoms=    7 NActive=    7 NUniq=    4 SFac= 2.30D+00 NAtFMM=   80 NAOKFM=F Big=F
 One-electron integrals computed using PRISM.
   4 Symmetry operations used in ECPInt.
 ECPInt:  NShTT=     406 NPrTT=     917 LenC2=     407 LenP2D=     902.
 LDataN:  DoStor=F MaxTD1= 3 Len=   28
 LDataN:  DoStor=T MaxTD1= 3 Len=   28
 NBasis=    56 RedAO= T  NBF=    22     6    12    16
 NBsUse=    56 1.00D-06 NBFU=    22     6    12    16
 Initial guess read from the read-write file:
 Initial guess orbital symmetries:
       Occupied  (A1) (B2) (A1) (B1) (A1) (B2) (A1) (A2) (B1) (A1)
                 (B2) (A1) (A1) (B2)
       Virtual   (B1) (B1) (A2) (B1) (B2) (A1) (A1) (B2) (A1) (B2)
                 (A1) (A2) (B1) (B2) (B1) (A1) (A1) (B2) (B2) (A1)
                 (A2) (B1) (A1) (B1) (A2) (B2) (A1) (A1) (B2) (B1)
                 (A2) (B1) (B2) (A1) (B2) (A1) (A1) (B2) (A1) (B2)
                 (B1) (A1)
 Requested convergence on RMS density matrix=1.00D-08 within 128 cycles.
 Requested convergence on MAX density matrix=1.00D-06.
 Requested convergence on             energy=1.00D-06.
 No special actions if energy rises.
 Keep R1 integrals in memory in canonical form, NReq=     3034676.
 SCF Done:  E(RB+HF-LYP) =  -26.9877554524     A.U. after   10 cycles
             Convg  =    0.1697D-08             -V/T =  3.6803
             S**2   =   0.0000
 QCSCF skips out because SCF is already converged.
 Range of M.O.s used for correlation:     1    56
 NBasis=    56 NAE=    14 NBE=    14 NFC=     0 NFV=     0
 NROrb=     56 NOA=    14 NOB=    14 NVA=    42 NVB=    42
   4 Symmetry operations used in ECPInt.
 ECPInt:  NShTT=     406 NPrTT=     917 LenC2=     407 LenP2D=     902.
 LDataN:  DoStor=F MaxTD1= 4 Len=   56
 LDataN:  DoStor=T MaxTD1= 4 Len=   56
 Symmetrizing basis deriv contribution to polar:
 IMax=3 JMax=2 DiffMx= 0.00D+00
 G2DrvN: will do    8 centers at a time, making    1 passes doing MaxLOS=1.
 FoFDir/FoFCou used for L=0 through L=1.
 DoAtom=TTTTTTT
          Differentiating once with respect to electric field.
                with respect to dipole field.
          Differentiating once with respect to nuclear coordinates.
          Store integrals in memory, NReq=     2076634.
          There are  15 degrees of freedom in the 1st order CPHF.
    15 vectors were produced by pass  0.
 AX will form  15 AO Fock derivatives at one time.
    15 vectors were produced by pass  1.
    15 vectors were produced by pass  2.
    15 vectors were produced by pass  3.
    15 vectors were produced by pass  4.
    15 vectors were produced by pass  5.
    15 vectors were produced by pass  6.
     3 vectors were produced by pass  7.
     3 vectors were produced by pass  8.
 Inv2:  IOpt= 1 Iter= 1 AM= 9.78D-16 Conv= 1.00D-12.
 Inverted reduced A of dimension  111 with in-core refinement.
 Isotropic polarizability for W=    0.000000      217.31 Bohr**3.
 End of Minotr Frequency-dependent properties file   721 does not exist.
   4 Symmetry operations used in ECPInt.
 ECPInt:  NShTT=     406 NPrTT=     917 LenC2=     407 LenP2D=     917.
 LDataN:  DoStor=F MaxTD1= 5 Len=  102
 LDataN:  DoStor=T MaxTD1= 5 Len=  102
 ***** Axes restored to original set *****
 -------------------------------------------------------------------
 Center     Atomic                   Forces (Hartrees/Bohr)
 Number     Number              X              Y              Z
 -------------------------------------------------------------------
    1         14           0.000000000    0.000007081    0.000010136
    2         14           0.000000000    0.000000000    0.000001934
    3         14           0.000000000   -0.000007081    0.000010136
    4         14           0.000000000   -0.000011549   -0.000010900
    5         14           0.000000000    0.000011549   -0.000010900
    6         14          -0.000004166    0.000000000   -0.000000203
    7         14           0.000004166    0.000000000   -0.000000203
 -------------------------------------------------------------------
 Cartesian Forces:  Max     0.000011549 RMS     0.000006357

 GradGradGradGradGradGradGradGradGradGradGradGradGradGradGradGradGradGrad
 Berny optimization.
 Internal  Forces:  Max     0.000010326 RMS     0.000003004
 Search for a local minimum.
 Step number   5 out of a maximum of 100
 All quantities printed in internal units (Hartrees-Bohrs-Radians)
 Second derivative matrix not updated -- analytic derivatives used.
 Trust test= 1.00D+00 RLast= 4.20D-02 DXMaxT set to 6.00D-01
     Eigenvalues ---    0.00818   0.00822   0.00834   0.01920   0.01923
     Eigenvalues ---    0.01955   0.01962   0.02478   0.02835   0.02837
     Eigenvalues ---    0.03035   0.03036   0.04247   0.04253   0.04948
     Eigenvalues --- 1000.000001000.000001000.000001000.000001000.00000
     Eigenvalues --- 1000.000001000.000001000.000001000.000001000.00000
     Eigenvalues --- 1000.000001000.000001000.000001000.000001000.00000
     Eigenvalues --- 1000.000001000.000001000.000001000.000001000.00000
     Eigenvalues --- 1000.00000
 RFO step:  Lambda=-1.09334594D-08.
 Quintic linear search produced a step of -0.00068.
 Iteration  1 RMS(Cart)=  0.00007687 RMS(Int)=  0.00000001
 Iteration  2 RMS(Cart)=  0.00000000 RMS(Int)=  0.00000000
 Variable       Old X    -DE/DX   Delta X   Delta X   Delta X     New X
                                 (Linear)    (Quad)   (Total)
    R1        4.97854   0.00000   0.00001  -0.00012  -0.00011   4.97842
    R2        4.97804   0.00001  -0.00001   0.00025   0.00024   4.97828
    R3        4.99906   0.00000   0.00001   0.00012   0.00013   4.99919
    R4        4.99906   0.00000   0.00001   0.00012   0.00013   4.99919
    R5        4.97854   0.00000   0.00001  -0.00012  -0.00011   4.97842
    R6        4.99896   0.00000   0.00000   0.00012   0.00012   4.99908
    R7        4.99896   0.00000   0.00000   0.00012   0.00012   4.99908
    R8        4.97804   0.00001  -0.00001   0.00025   0.00024   4.97828
    R9        4.99906   0.00000   0.00001   0.00012   0.00013   4.99919
   R10        4.99906   0.00000   0.00001   0.00012   0.00013   4.99919
   R11        4.97790   0.00001   0.00001   0.00034   0.00035   4.97826
   R12        4.99936   0.00000   0.00000   0.00007   0.00007   4.99943
   R13        4.99936   0.00000   0.00000   0.00007   0.00007   4.99943
   R14        4.99936   0.00000   0.00000   0.00007   0.00007   4.99943
   R15        4.99936   0.00000   0.00000   0.00007   0.00007   4.99943
   R16        5.31366   0.00000   0.00001   0.00005   0.00005   5.31372
    A1        1.88495   0.00000   0.00000   0.00001   0.00001   1.88496
    A2        1.88484   0.00000   0.00000   0.00008   0.00008   1.88492
    A3        1.88495   0.00000   0.00000   0.00001   0.00001   1.88496
    A4        1.88502   0.00000   0.00000  -0.00005  -0.00005   1.88497
    A5        1.88502   0.00000   0.00000  -0.00005  -0.00005   1.88497
    A6        1.87358   0.00000   0.00000  -0.00005  -0.00005   1.87353
    A7        1.87337   0.00000   0.00000   0.00006   0.00006   1.87343
    A8        1.87350   0.00000   0.00000  -0.00001  -0.00001   1.87349
    A9        1.87350   0.00000   0.00000  -0.00001  -0.00001   1.87349
   A10        1.87337   0.00000   0.00000   0.00006   0.00006   1.87343
   A11        1.87358   0.00000   0.00000  -0.00005  -0.00005   1.87353
   A12        1.87337   0.00000   0.00000   0.00006   0.00006   1.87343
   A13        1.87350   0.00000   0.00000  -0.00001  -0.00001   1.87349
   A14        1.87350   0.00000   0.00000  -0.00001  -0.00001   1.87349
   A15        1.87337   0.00000   0.00000   0.00006   0.00006   1.87343
    D1        0.00000   0.00000   0.00000   0.00000   0.00000   0.00000
    D2        0.00000   0.00000   0.00000   0.00000   0.00000   0.00000
    D3        0.00000   0.00000   0.00000   0.00000   0.00000   0.00000
    D4        0.00000   0.00000   0.00000   0.00000   0.00000   0.00000
    D5        0.00000   0.00000   0.00000   0.00000   0.00000   0.00000
         Item               Value     Threshold  Converged?
 Maximum Force            0.000010     0.000450     YES
 RMS     Force            0.000003     0.000300     YES
 Maximum Displacement     0.000221     0.001800     YES
 RMS     Displacement     0.000077     0.001200     YES
 Predicted change in Energy=-5.468237D-09
 Optimization completed.
    -- Stationary point found.
                           ----------------------------
                           !   Optimized Parameters   !
                           ! (Angstroms and Degrees)  !
 --------------------------                            --------------------------
 ! Name  Definition              Value          Derivative Info.                !
 --------------------------------------------------------------------------------
 ! R1    R(1,2)                  2.6345         -DE/DX =    0.0                 !
 ! R2    R(1,5)                  2.6343         -DE/DX =    0.0                 !
 ! R3    R(1,6)                  2.6454         -DE/DX =    0.0                 !
 ! R4    R(1,7)                  2.6454         -DE/DX =    0.0                 !
 ! R5    R(2,3)                  2.6345         -DE/DX =    0.0                 !
 ! R6    R(2,6)                  2.6453         -DE/DX =    0.0                 !
 ! R7    R(2,7)                  2.6453         -DE/DX =    0.0                 !
 ! R8    R(3,4)                  2.6343         -DE/DX =    0.0                 !
 ! R9    R(3,6)                  2.6454         -DE/DX =    0.0                 !
 ! R10   R(3,7)                  2.6454         -DE/DX =    0.0                 !
 ! R11   R(4,5)                  2.6342         -DE/DX =    0.0                 !
 ! R12   R(4,6)                  2.6455         -DE/DX =    0.0                 !
 ! R13   R(4,7)                  2.6455         -DE/DX =    0.0                 !
 ! R14   R(5,6)                  2.6455         -DE/DX =    0.0                 !
 ! R15   R(5,7)                  2.6455         -DE/DX =    0.0                 !
 ! R16   R(6,7)                  2.8119         -DE/DX =    0.0                 !
 ! A1    A(2,1,5)              107.9998         -DE/DX =    0.0                 !
 ! A2    A(1,2,3)              107.9933         -DE/DX =    0.0                 !
 ! A3    A(2,3,4)              107.9998         -DE/DX =    0.0                 !
 ! A4    A(3,4,5)              108.0036         -DE/DX =    0.0                 !
 ! A5    A(1,5,4)              108.0036         -DE/DX =    0.0                 !
 ! A6    A(1,6,3)              107.3483         -DE/DX =    0.0                 !
 ! A7    A(1,6,4)              107.3361         -DE/DX =    0.0                 !
 ! A8    A(2,6,4)              107.3438         -DE/DX =    0.0                 !
 ! A9    A(2,6,5)              107.3438         -DE/DX =    0.0                 !
 ! A10   A(3,6,5)              107.3361         -DE/DX =    0.0                 !
 ! A11   A(1,7,3)              107.3483         -DE/DX =    0.0                 !
 ! A12   A(1,7,4)              107.3361         -DE/DX =    0.0                 !
 ! A13   A(2,7,4)              107.3438         -DE/DX =    0.0                 !
 ! A14   A(2,7,5)              107.3438         -DE/DX =    0.0                 !
 ! A15   A(3,7,5)              107.3361         -DE/DX =    0.0                 !
 ! D1    D(5,1,2,3)              0.0            -DE/DX =    0.0                 !
 ! D2    D(2,1,5,4)              0.0            -DE/DX =    0.0                 !
 ! D3    D(1,2,3,4)              0.0            -DE/DX =    0.0                 !
 ! D4    D(2,3,4,5)              0.0            -DE/DX =    0.0                 !
 ! D5    D(3,4,5,1)              0.0            -DE/DX =    0.0                 !
 --------------------------------------------------------------------------------
 GradGradGradGradGradGradGradGradGradGradGradGradGradGradGradGradGradGrad

                          Input orientation:                          
 ---------------------------------------------------------------------
 Center     Atomic     Atomic              Coordinates (Angstroms)
 Number     Number      Type              X           Y           Z
 ---------------------------------------------------------------------
    1         14             0        0.000000    2.131287    0.809868
    2         14             0        0.000000    0.000000    2.358530
    3         14             0        0.000000   -2.131287    0.809868
    4         14             0        0.000000   -1.317097   -1.695415
    5         14             0        0.000000    1.317097   -1.695415
    6         14             0       -1.405935    0.000000    0.117740
    7         14             0        1.405935    0.000000    0.117740
 ---------------------------------------------------------------------
                    Distance matrix (angstroms):
                    1          2          3          4          5
     1  Si   0.000000
     2  Si   2.634528   0.000000
     3  Si   4.262573   2.634528   0.000000
     4  Si   4.262369   4.262535   2.634264   0.000000
     5  Si   2.634264   4.262535   4.262369   2.634193   0.000000
     6  Si   2.645388   2.645334   2.645388   2.645548   2.645548
     7  Si   2.645388   2.645334   2.645388   2.645548   2.645548
                    6          7
     6  Si   0.000000
     7  Si   2.811869   0.000000
 Stoichiometry    Si7
 Framework group  C2V[C2(Si),SGV(Si4),SGV'(Si2)]
 Deg. of freedom     6
 Full point group                 C2V
 Largest Abelian subgroup         C2V     NOp   4
 Largest concise Abelian subgroup C2V     NOp   4
                         Standard orientation:                         
 ---------------------------------------------------------------------
 Center     Atomic     Atomic              Coordinates (Angstroms)
 Number     Number      Type              X           Y           Z
 ---------------------------------------------------------------------
    1         14             0        0.000000    2.131287    0.692309
    2         14             0        0.000000    0.000000    2.240970
    3         14             0        0.000000   -2.131287    0.692309
    4         14             0        0.000000   -1.317097   -1.812974
    5         14             0        0.000000    1.317097   -1.812974
    6         14             0       -1.405935    0.000000    0.000180
    7         14             0        1.405935    0.000000    0.000180
 ---------------------------------------------------------------------
 Rotational constants (GHZ):      1.0942948      1.0942930      0.7194421

 **********************************************************************

            Population analysis using the SCF density.

 **********************************************************************

 Orbital symmetries:
       Occupied  (A1) (B2) (A1) (B1) (A1) (B2) (A1) (A2) (B1) (A1)
                 (A1) (B2) (A1) (B2)
[...]
   4  14     0.00  -0.26  -0.04     0.00  -0.29  -0.50     0.00  -0.21  -0.29
   5  14     0.00   0.26  -0.04     0.00  -0.29   0.50     0.00   0.21  -0.29
   6  14     0.00   0.00   0.00     0.00   0.00   0.00     0.41   0.00   0.00
   7  14     0.00   0.00   0.00     0.00   0.00   0.00    -0.41   0.00   0.00
                    13                     14                     15
                    A1                     B2                     A1
 Frequencies --   399.8064               399.8466               418.3453
 Red. masses --    27.9769                27.9769                27.9769
 Frc consts  --     2.6348                 2.6353                 2.8848
 IR Inten    --    15.5360                15.5287                 0.0003
 Atom AN      X      Y      Z        X      Y      Z        X      Y      Z
   1  14     0.00  -0.19   0.11     0.00   0.43   0.19     0.00  -0.24  -0.08
   2  14     0.00   0.00  -0.49     0.00  -0.17   0.00     0.00   0.00  -0.26
   3  14     0.00   0.19   0.11     0.00   0.43  -0.19     0.00   0.24  -0.08
   4  14     0.00  -0.32  -0.27     0.00   0.06   0.32     0.00   0.15   0.21
   5  14     0.00   0.32  -0.27     0.00   0.06  -0.32     0.00  -0.15   0.21
   6  14     0.00   0.00   0.40     0.00  -0.40   0.00     0.58   0.00   0.00
   7  14     0.00   0.00   0.40     0.00  -0.40   0.00    -0.58   0.00   0.00

 -------------------
 - Thermochemistry -
 -------------------
 Temperature   298.150 Kelvin.  Pressure   1.00000 Atm.
 Atom  1 has atomic number 14 and mass  27.97693
 Atom  2 has atomic number 14 and mass  27.97693
 Atom  3 has atomic number 14 and mass  27.97693
 Atom  4 has atomic number 14 and mass  27.97693
 Atom  5 has atomic number 14 and mass  27.97693
 Atom  6 has atomic number 14 and mass  27.97693
 Atom  7 has atomic number 14 and mass  27.97693
 Molecular mass:   195.83850 amu.
 Principal axes and moments of inertia in atomic units:
                           1         2         3
     EIGENVALUES --  1469.837561469.918832275.53383
           X            0.00000   0.00000   1.00000
           Y            0.00000   1.00000   0.00000
           Z            1.00000   0.00000   0.00000
 This molecule is an asymmetric top.
 Rotational symmetry number  2.
 Warning -- assumption of classical behavior for rotation
           may cause significant error
 Rotational temperatures (Kelvin)      0.05893     0.05892     0.03806
 Rotational constants (GHZ):           1.22785     1.22778     0.79311
 Zero-point vibrational energy      26141.0 (Joules/Mol)
                                    6.24785 (Kcal/Mol)
 Warning -- explicit consideration of  15 degrees of freedom as
           vibrations may cause significant error
 Vibrational temperatures:    228.21   228.90   308.22   308.38   313.19
          (Kelvin)            387.44   387.70   457.83   457.97   476.85
                              477.37   503.59   575.23   575.29   601.90
 
 Zero-point correction=                           0.009957 (Hartree/Particle)
 Thermal correction to Energy=                    0.019408
 Thermal correction to Enthalpy=                  0.020352
 Thermal correction to Gibbs Free Energy=        -0.024202
 Sum of electronic and zero-point Energies=          -2026.546660
 Sum of electronic and thermal Energies=             -2026.537209
 Sum of electronic and thermal Enthalpies=           -2026.536265
 Sum of electronic and thermal Free Energies=        -2026.580819
 
                     E (Thermal)             CV                S
                      KCal/Mol        Cal/Mol-Kelvin    Cal/Mol-Kelvin
 Total                   12.179             31.107             93.772
 Electronic               0.000              0.000              0.000
 Translational            0.889              2.981             41.722
 Rotational               0.889              2.981             28.599
 Vibrational             10.401             25.146             23.452
 Vibration  1             0.621              1.893              2.566
 Vibration  2             0.621              1.892              2.561
 Vibration  3             0.644              1.819              2.007
 Vibration  4             0.644              1.819              2.006
 Vibration  5             0.646              1.814              1.978
 Vibration  6             0.674              1.730              1.601
 Vibration  7             0.674              1.729              1.600
 Vibration  8             0.705              1.639              1.319
 Vibration  9             0.705              1.639              1.319
 Vibration 10             0.714              1.613              1.253
 Vibration 11             0.714              1.612              1.251
 Vibration 12             0.727              1.575              1.166
 Vibration 13             0.766              1.471              0.963
 Vibration 14             0.766              1.470              0.963
 Vibration 15             0.781              1.430              0.898
                       Q            Log10(Q)             Ln(Q)
 Total Bot       0.135567D+12         11.132155         25.632734
 Total V=0       0.515054D+16         15.711852         36.177877
 Vib (Bot)       0.317112D-02         -2.498787         -5.753669
 Vib (Bot)  1    0.127513D+01          0.105555          0.243049
 Vib (Bot)  2    0.127111D+01          0.104183          0.239891
 Vib (Bot)  3    0.925552D+00         -0.033599         -0.077364
 Vib (Bot)  4    0.925046D+00         -0.033837         -0.077912
 Vib (Bot)  5    0.909572D+00         -0.041163         -0.094781
 Vib (Bot)  6    0.717942D+00         -0.143910         -0.331366
 Vib (Bot)  7    0.717405D+00         -0.144236         -0.332115
 Vib (Bot)  8    0.591386D+00         -0.228129         -0.525287
 Vib (Bot)  9    0.591169D+00         -0.228289         -0.525654
 Vib (Bot) 10    0.563261D+00         -0.249290         -0.574011
 Vib (Bot) 11    0.562529D+00         -0.249855         -0.575313
 Vib (Bot) 12    0.527122D+00         -0.278089         -0.640323
 Vib (Bot) 13    0.445870D+00         -0.350792         -0.807728
 Vib (Bot) 14    0.445812D+00         -0.350848         -0.807858
 Vib (Bot) 15    0.420254D+00         -0.376488         -0.866897
 Vib (V=0)       0.120479D+03          2.080911          4.791474
 Vib (V=0)  1    0.186966D+01          0.271762          0.625755
 Vib (V=0)  2    0.186591D+01          0.270892          0.623751
 Vib (V=0)  3    0.155197D+01          0.190884          0.439527
 Vib (V=0)  4    0.155153D+01          0.190759          0.439240
 Vib (V=0)  5    0.153794D+01          0.186940          0.430444
 Vib (V=0)  6    0.137489D+01          0.138269          0.318377
 Vib (V=0)  7    0.137445D+01          0.138130          0.318057
 Vib (V=0)  8    0.127443D+01          0.105315          0.242497
 Vib (V=0)  9    0.127426D+01          0.105258          0.242367
 Vib (V=0) 10    0.125317D+01          0.098010          0.225675
 Vib (V=0) 11    0.125262D+01          0.097820          0.225238
 Vib (V=0) 12    0.122654D+01          0.088681          0.204196
 Vib (V=0) 13    0.116993D+01          0.068158          0.156940
 Vib (V=0) 14    0.116989D+01          0.068144          0.156907
 Vib (V=0) 15    0.115316D+01          0.061888          0.142503
 Electronic      0.100000D+01          0.000000          0.000000
 Translational   0.107721D+09          8.032302         18.495059
 Rotational      0.396862D+06          5.598639         12.891344
 ***** Axes restored to original set *****
 -------------------------------------------------------------------
 Center     Atomic                   Forces (Hartrees/Bohr)
 Number     Number              X              Y              Z
 -------------------------------------------------------------------
    1         14           0.000000000    0.000018252    0.000005928
    2         14           0.000000000    0.000000000    0.000019861
    3         14           0.000000000   -0.000018252    0.000005928
    4         14           0.000000000   -0.000011294   -0.000015332
    5         14           0.000000000    0.000011294   -0.000015332
    6         14           0.000253312    0.000000000   -0.000000527
    7         14          -0.000253312    0.000000000   -0.000000527
 -------------------------------------------------------------------
 Cartesian Forces:  Max     0.000253312 RMS     0.000078737

 GradGradGradGradGradGradGradGradGradGradGradGradGradGradGradGradGradGrad
 Berny optimization.
 Internal  Forces:  Max     0.000161215 RMS     0.000034772
 Search for a local minimum.
 Step number   1 out of a maximum of   2
 All quantities printed in internal units (Hartrees-Bohrs-Radians)
 Second derivative matrix not updated -- analytic derivatives used.
     Eigenvalues ---    0.01722   0.01732   0.01980   0.03264   0.03268
     Eigenvalues ---    0.03446   0.03450   0.03975   0.04286   0.04287
     Eigenvalues ---    0.04380   0.04382   0.06032   0.06046   0.06280
     Eigenvalues --- 1000.000001000.000001000.000001000.000001000.00000
     Eigenvalues --- 1000.000001000.000001000.000001000.000001000.00000
     Eigenvalues --- 1000.000001000.000001000.000001000.000001000.00000
     Eigenvalues --- 1000.000001000.000001000.000001000.000001000.00000
     Eigenvalues --- 1000.00000
 Angle between quadratic step and forces=  12.96 degrees.
 Linear search not attempted -- first point.
 Iteration  1 RMS(Cart)=  0.00039273 RMS(Int)=  0.00000013
 Iteration  2 RMS(Cart)=  0.00000005 RMS(Int)=  0.00000008
 Variable       Old X    -DE/DX   Delta X   Delta X   Delta X     New X
                                 (Linear)    (Quad)   (Total)
    R1        4.74142   0.00003   0.00000   0.00036   0.00036   4.74178
    R2        4.74136   0.00003   0.00000   0.00036   0.00036   4.74172
    R3        4.71180  -0.00002   0.00000  -0.00056  -0.00056   4.71124
    R4        4.71180  -0.00002   0.00000  -0.00056  -0.00056   4.71124
    R5        4.74142   0.00003   0.00000   0.00036   0.00036   4.74178
    R6        4.71182  -0.00002   0.00000  -0.00055  -0.00055   4.71127
    R7        4.71182  -0.00002   0.00000  -0.00055  -0.00055   4.71127
    R8        4.74136   0.00003   0.00000   0.00036   0.00036   4.74172
    R9        4.71180  -0.00002   0.00000  -0.00056  -0.00056   4.71124
   R10        4.71180  -0.00002   0.00000  -0.00056  -0.00056   4.71124
   R11        4.74137   0.00003   0.00000   0.00037   0.00037   4.74174
   R12        4.71222  -0.00002   0.00000  -0.00057  -0.00057   4.71165
   R13        4.71222  -0.00002   0.00000  -0.00057  -0.00057   4.71165
   R14        4.71222  -0.00002   0.00000  -0.00057  -0.00057   4.71165
   R15        4.71222  -0.00002   0.00000  -0.00057  -0.00057   4.71165
   R16        4.87256  -0.00016   0.00000  -0.00319  -0.00319   4.86937
    A1        1.88501   0.00000   0.00000   0.00000   0.00000   1.88502
    A2        1.88487   0.00000   0.00000   0.00000   0.00000   1.88487
    A3        1.88501   0.00000   0.00000   0.00000   0.00000   1.88502
    A4        1.88494   0.00000   0.00000   0.00000   0.00000   1.88494
    A5        1.88494   0.00000   0.00000   0.00000   0.00000   1.88494
    A6        1.90228   0.00003   0.00000   0.00054   0.00054   1.90282
    A7        1.90219   0.00003   0.00000   0.00055   0.00055   1.90274
    A8        1.90228   0.00003   0.00000   0.00055   0.00055   1.90283
    A9        1.90228   0.00003   0.00000   0.00055   0.00055   1.90283
   A10        1.90219   0.00003   0.00000   0.00055   0.00055   1.90274
   A11        1.90228   0.00003   0.00000   0.00054   0.00054   1.90282
   A12        1.90219   0.00003   0.00000   0.00055   0.00055   1.90274
   A13        1.90228   0.00003   0.00000   0.00055   0.00055   1.90283
   A14        1.90228   0.00003   0.00000   0.00055   0.00055   1.90283
   A15        1.90219   0.00003   0.00000   0.00055   0.00055   1.90274
    D1        0.00000   0.00000   0.00000   0.00000   0.00000   0.00000
    D2        0.00000   0.00000   0.00000   0.00000   0.00000   0.00000
    D3        0.00000   0.00000   0.00000   0.00000   0.00000   0.00000
    D4        0.00000   0.00000   0.00000   0.00000   0.00000   0.00000
    D5        0.00000   0.00000   0.00000   0.00000   0.00000   0.00000
         Item               Value     Threshold  Converged?
 Maximum Force            0.000161     0.000450     YES
 RMS     Force            0.000035     0.000300     YES
 Maximum Displacement     0.001593     0.001800     YES
 RMS     Displacement     0.000393     0.001200     YES
 Predicted change in Energy=-4.184626D-07
 Optimization completed.
    -- Stationary point found.
                           ----------------------------
                           !   Optimized Parameters   !
                           ! (Angstroms and Degrees)  !
 --------------------------                            --------------------------
 ! Name  Definition              Value          Derivative Info.                !
 --------------------------------------------------------------------------------
 ! R1    R(1,2)                  2.5091         -DE/DX =    0.0                 !
 ! R2    R(1,5)                  2.509          -DE/DX =    0.0                 !
 ! R3    R(1,6)                  2.4934         -DE/DX =    0.0                 !
 ! R4    R(1,7)                  2.4934         -DE/DX =    0.0                 !
 ! R5    R(2,3)                  2.5091         -DE/DX =    0.0                 !
 ! R6    R(2,6)                  2.4934         -DE/DX =    0.0                 !
 ! R7    R(2,7)                  2.4934         -DE/DX =    0.0                 !
 ! R8    R(3,4)                  2.509          -DE/DX =    0.0                 !
 ! R9    R(3,6)                  2.4934         -DE/DX =    0.0                 !
 ! R10   R(3,7)                  2.4934         -DE/DX =    0.0                 !
 ! R11   R(4,5)                  2.509          -DE/DX =    0.0                 !
 ! R12   R(4,6)                  2.4936         -DE/DX =    0.0                 !
 ! R13   R(4,7)                  2.4936         -DE/DX =    0.0                 !
 ! R14   R(5,6)                  2.4936         -DE/DX =    0.0                 !
 ! R15   R(5,7)                  2.4936         -DE/DX =    0.0                 !
 ! R16   R(6,7)                  2.5784         -DE/DX =   -0.0002              !
 ! A1    A(2,1,5)              108.0034         -DE/DX =    0.0                 !
 ! A2    A(1,2,3)              107.9951         -DE/DX =    0.0                 !
 ! A3    A(2,3,4)              108.0034         -DE/DX =    0.0                 !
 ! A4    A(3,4,5)              107.9991         -DE/DX =    0.0                 !
 ! A5    A(1,5,4)              107.9991         -DE/DX =    0.0                 !
 ! A6    A(1,6,3)              108.9925         -DE/DX =    0.0                 !
 ! A7    A(1,6,4)              108.9875         -DE/DX =    0.0                 !
 ! A8    A(2,6,4)              108.9925         -DE/DX =    0.0                 !
 ! A9    A(2,6,5)              108.9925         -DE/DX =    0.0                 !
 ! A10   A(3,6,5)              108.9875         -DE/DX =    0.0                 !
 ! A11   A(1,7,3)              108.9925         -DE/DX =    0.0                 !
 ! A12   A(1,7,4)              108.9875         -DE/DX =    0.0                 !
 ! A13   A(2,7,4)              108.9925         -DE/DX =    0.0                 !
 ! A14   A(2,7,5)              108.9925         -DE/DX =    0.0                 !
 ! A15   A(3,7,5)              108.9875         -DE/DX =    0.0                 !
 ! D1    D(5,1,2,3)              0.0            -DE/DX =    0.0                 !
 ! D2    D(2,1,5,4)              0.0            -DE/DX =    0.0                 !
 ! D3    D(1,2,3,4)              0.0            -DE/DX =    0.0                 !
 ! D4    D(2,3,4,5)              0.0            -DE/DX =    0.0                 !
 ! D5    D(3,4,5,1)              0.0            -DE/DX =    0.0                 !
 --------------------------------------------------------------------------------
 GradGradGradGradGradGradGradGradGradGradGradGradGradGradGradGradGradGrad

 1\1\GINC-NODE24\Freq\RB3LYP\6-311+G(d)\Si7\TAM\04-Apr-2011\0\\#N Geom=
 AllCheck Guess=Read SCRF=Check GenChk RB3LYP/6-311+G(d) Freq\\si7-n\\0
 ,1\Si,0.,2.029803041,0.7770278475\Si,0.,-0.0000000003,2.2518998809\Si,
 0.,-2.0298030411,0.777027847\Si,0.,-1.2545126852,-1.6092022837\Si,0.,1
 .2545126857,-1.6092022834\Si,-1.289222663,0.,0.1176824957\Si,1.2892226
 63,0.,0.1176824957\\Version=AM64L-G03RevE.01\State=1-A1\HF=-2026.55661
 69\RMSD=7.101e-10\RMSF=7.874e-05\ZeroPoint=0.0099566\Thermal=0.0194081
 \Dipole=0.,0.,-0.0001837\DipoleDeriv=0.0310538,0.,0.,0.,0.28365,0.1234
 981,0.,0.1234707,-0.0562891,0.0311296,0.,0.,0.,-0.0963426,0.,0.,0.,0.3
 238495,0.0310538,0.,0.,0.,0.28365,-0.1234981,0.,-0.1234707,-0.0562891,
 0.0310899,0.,0.,0.,0.0488515,0.1998196,0.,0.1998116,0.1787526,0.031089
 9,0.,0.,0.,0.0488515,-0.1998196,0.,-0.1998116,0.1787526,-0.0777085,0.,
 -0.0000144,0.,-0.2843302,0.,0.0000535,0.,-0.2843883,-0.0777085,0.,0.00
 00144,0.,-0.2843302,0.,-0.0000535,0.,-0.2843883\Polar=155.7956074,0.,2
 37.7419837,-0.0000002,0.,237.7416868\PG=C02V [C2(Si1),SGV(Si4),SGV'(Si
 2)]\NImag=0\\0.02332962,0.,0.10975176,0.,0.01999946,0.05470647,-0.0027
 7832,0.,0.,0.02343440,0.,-0.02458020,0.01422874,0.,0.04820830,0.,0.011
 61517,-0.01613921,0.,0.,0.11611969,-0.00170158,0.,0.,-0.00277832,0.,0.
 ,0.02332962,0.,-0.01242891,0.00252323,0.,-0.02458020,-0.01161517,0.,0.
 10975176,0.,-0.00252323,0.00035294,0.,-0.01422874,-0.01613921,0.,-0.01
 999946,0.05470647,-0.00169602,0.,0.,-0.00169918,0.,0.,-0.00276868,0.,0
 .,0.02314829,0.,-0.00801292,-0.00861151,0.,-0.00086673,-0.00124220,0.,
 -0.00938343,0.00931242,0.,0.07192029,0.,-0.00356617,-0.00405825,0.,-0.
 00628485,-0.01121477,0.,0.00666765,-0.03140359,0.,0.03243407,0.0929366
 7,-0.00276868,0.,0.,-0.00169918,0.,0.,-0.00169602,0.,0.,-0.00277464,0.
 ,0.,0.02314829,0.,-0.00938343,-0.00931242,0.,-0.00086673,0.00124220,0.
 ,-0.00801292,0.00861151,0.,-0.03401713,0.00135043,0.,0.07192029,0.,-0.
 00666765,-0.03140359,0.,0.00628485,-0.01121477,0.,0.00356617,-0.004058
 25,0.,-0.00135043,-0.00682099,0.,-0.03243407,0.09293667,-0.00719251,-0
 .00785071,-0.00255655,-0.00723971,0.,-0.00836093,-0.00719251,0.0078507
 1,-0.00255655,-0.00710489,0.00482148,0.00665511,-0.00710489,-0.0048214
 8,0.00665511,0.10140760,-0.01910950,-0.02767315,-0.00941375,0.,0.00134
 278,0.,0.01910950,-0.02767315,0.00941375,0.01176777,-0.00982004,-0.015
 30056,-0.01176777,-0.00982004,0.01530056,0.,0.07827113,-0.00618868,-0.
 00942879,-0.00172918,-0.02013429,0.,-0.03070588,-0.00618868,0.00942879
 ,-0.00172918,0.01623490,-0.01527117,-0.01971953,0.01623490,0.01527117,
 -0.01971953,0.00010282,0.,0.07827341,-0.00719251,0.00785071,0.00255655
 ,-0.00723971,0.,0.00836093,-0.00719251,-0.00785071,0.00255655,-0.00710
 489,-0.00482148,-0.00665511,-0.00710489,0.00482148,-0.00665511,-0.0655
 7308,0.,-0.00006098,0.10140760,0.01910950,-0.02767315,-0.00941375,0.,0
 .00134278,0.,-0.01910950,-0.02767315,0.00941375,-0.01176777,-0.0098200
 4,-0.01530056,0.01176777,-0.00982004,0.01530056,0.,-0.00462754,0.,0.,0
 .07827113,0.00618868,-0.00942879,-0.00172918,0.02013429,0.,-0.03070588
 ,0.00618868,0.00942879,-0.00172918,-0.01623490,-0.01527117,-0.01971953
 ,-0.01623490,0.01527117,-0.01971953,0.00006098,0.,-0.00467011,-0.00010
 282,0.,0.07827341\\0.,-0.00001825,-0.00000593,0.,0.,-0.00001986,0.,0.0
 0001825,-0.00000593,0.,0.00001129,0.00001533,0.,-0.00001129,0.00001533
 ,-0.00025331,0.,0.00000053,0.00025331,0.,0.00000053\\\@


 A successful marriage requires falling in love
 many times, always with the same person.
                           -- Mignon McLaughlin
 Job cpu time:  0 days  0 hours 10 minutes 58.3 seconds.
 File lengths (MBytes):  RWF=     55 Int=      0 D2E=      0 Chk=      9 Scr=      1
 Normal termination of Gaussian 03 at Mon Apr  4 16:16:11 2011.
