 Entering Gaussian System, Link 0=g09
 Initial command:
 /usr/local/chem/g09A2/l1.exe /temp0/tam/Gau-30341.inp -scrdir=/temp0/tam/
 Entering Link 1 = /usr/local/chem/g09A2/l1.exe PID=     30342.
  
 Copyright (c) 1988,1990,1992,1993,1995,1998,2003,2009, Gaussian, Inc.
                  All Rights Reserved.
  
 This is part of the Gaussian(R) 09 program.  It is based on
 the Gaussian(R) 03 system (copyright 2003, Gaussian, Inc.),
 the Gaussian(R) 98 system (copyright 1998, Gaussian, Inc.),
 the Gaussian(R) 94 system (copyright 1995, Gaussian, Inc.),
 the Gaussian 92(TM) system (copyright 1992, Gaussian, Inc.),
 the Gaussian 90(TM) system (copyright 1990, Gaussian, Inc.),
 the Gaussian 88(TM) system (copyright 1988, Gaussian, Inc.),
 the Gaussian 86(TM) system (copyright 1986, Carnegie Mellon
 University), and the Gaussian 82(TM) system (copyright 1983,
 Carnegie Mellon University). Gaussian is a federally registered
 trademark of Gaussian, Inc.
  
 This software contains proprietary and confidential information,
 including trade secrets, belonging to Gaussian, Inc.
  
 This software is provided under written license and may be
 used, copied, transmitted, or stored only in accord with that
 written license.
  
 The following legend is applicable only to US Government
 contracts under FAR:
  
                    RESTRICTED RIGHTS LEGEND
  
 Use, reproduction and disclosure by the US Government is
 subject to restrictions as set forth in subparagraphs (a)
 and (c) of the Commercial Computer Software - Restricted
 Rights clause in FAR 52.227-19.
  
 Gaussian, Inc.
 340 Quinnipiac St., Bldg. 40, Wallingford CT 06492
  
  
 ---------------------------------------------------------------
 Warning -- This program may not be used in any manner that
 competes with the business of Gaussian, Inc. or will provide
 assistance to any competitor of Gaussian, Inc.  The licensee
 of this program is prohibited from giving any competitor of
 Gaussian, Inc. access to this program.  By using this program,
 the user acknowledges that Gaussian, Inc. is engaged in the
 business of creating and licensing software in the field of
 computational chemistry and represents and warrants to the
 licensee that it is not a competitor of Gaussian, Inc. and that
 it will not use this program in any manner prohibited above.
 ---------------------------------------------------------------
  

 Cite this work as:
 Gaussian 09, Revision A.02,
 M. J. Frisch, G. W. Trucks, H. B. Schlegel, G. E. Scuseria, 
 M. A. Robb, J. R. Cheeseman, G. Scalmani, V. Barone, B. Mennucci, 
 G. A. Petersson, H. Nakatsuji, M. Caricato, X. Li, H. P. Hratchian, 
 A. F. Izmaylov, J. Bloino, G. Zheng, J. L. Sonnenberg, M. Hada, 
 M. Ehara, K. Toyota, R. Fukuda, J. Hasegawa, M. Ishida, T. Nakajima, 
 Y. Honda, O. Kitao, H. Nakai, T. Vreven, J. A. Montgomery, Jr., 
 J. E. Peralta, F. Ogliaro, M. Bearpark, J. J. Heyd, E. Brothers, 
 K. N. Kudin, V. N. Staroverov, R. Kobayashi, J. Normand, 
 K. Raghavachari, A. Rendell, J. C. Burant, S. S. Iyengar, J. Tomasi, 
 M. Cossi, N. Rega, J. M. Millam, M. Klene, J. E. Knox, J. B. Cross, 
 V. Bakken, C. Adamo, J. Jaramillo, R. Gomperts, R. E. Stratmann, 
 O. Yazyev, A. J. Austin, R. Cammi, C. Pomelli, J. W. Ochterski, 
 R. L. Martin, K. Morokuma, V. G. Zakrzewski, G. A. Voth, 
 P. Salvador, J. J. Dannenberg, S. Dapprich, A. D. Daniels, 
 O. Farkas, J. B. Foresman, J. V. Ortiz, J. Cioslowski, 
 and D. J. Fox, Gaussian, Inc., Wallingford CT, 2009.
 
 ******************************************
 Gaussian 09:  AM64L-G09RevA.02 11-Jun-2009
                 3-Apr-2012 
 ******************************************
 %NprocShared=8
 Will use up to    8 processors via shared memory.
 %mem=39150MB
 %chk=S8L-ne-d-01
 --------------------------------------
 # b3lyp/6-311G freq scfcyc=500 scf=xqc
 --------------------------------------
 1/10=4,30=1,38=1/1,3;
 2/12=2,17=6,18=5,40=1/2;
 3/5=4,6=6,11=2,16=1,25=1,30=1,71=2,74=-5/1,2,3;
 4//1;
 5/5=2,7=500,8=3,13=1,38=5,98=1/2,8;
 8/6=4,10=90,11=11/1;
 11/6=1,8=1,9=11,15=111,16=1/1,2,10;
 10/6=1/2;
 6/7=2,8=2,9=2,10=2,18=1,28=1/1;
 7/8=1,10=1,25=1/1,2,3,16;
 1/10=4,30=1/3;
 99//99;
 --------------------------
 si8li-cation-doublet-adiab
 --------------------------
 Symbolic Z-matrix:
 Charge =  1 Multiplicity = 2
 Si                    0.66844   1.25551   1.4585 
 Si                   -0.66844  -1.25551   1.4585 
 Si                    0.66844   1.25551  -1.4585 
 Si                   -0.66844  -1.25551  -1.4585 
 Si                   -1.28678   0.57503   0. 
 Si                    1.28678  -0.57503   0. 
 Si                   -0.66844   2.77029   0. 
 Si                    0.66844  -2.77029   0. 
 

 GradGradGradGradGradGradGradGradGradGradGradGradGradGradGradGradGradGrad
 Berny optimization.
 Initialization pass.
 Trust Radius=3.00D-01 FncErr=1.00D-07 GrdErr=1.00D-07
 Number of steps in this run=   2 maximum allowed number of steps=   2.
 GradGradGradGradGradGradGradGradGradGradGradGradGradGradGradGradGradGrad

                          Input orientation:                          
 ---------------------------------------------------------------------
 Center     Atomic      Atomic             Coordinates (Angstroms)
 Number     Number       Type             X           Y           Z
 ---------------------------------------------------------------------
      1         14           0        0.668443    1.255513    1.458498
      2         14           0       -0.668443   -1.255513    1.458498
      3         14           0        0.668443    1.255513   -1.458498
      4         14           0       -0.668443   -1.255513   -1.458498
      5         14           0       -1.286783    0.575029    0.000000
      6         14           0        1.286783   -0.575029    0.000000
      7         14           0       -0.668443    2.770287    0.000000
      8         14           0        0.668443   -2.770287    0.000000
 ---------------------------------------------------------------------
                    Distance matrix (angstroms):
                    1          2          3          4          5
     1  Si   0.000000
     2  Si   2.844735   0.000000
     3  Si   2.916996   4.074479   0.000000
     4  Si   4.074479   2.916996   2.844735   0.000000
     5  Si   2.532426   2.420836   2.532426   2.420836   0.000000
     6  Si   2.420836   2.532426   2.420836   2.532426   2.818843
     7  Si   2.491791   4.281855   2.491791   4.281855   2.280680
     8  Si   4.281855   2.491791   4.281855   2.491791   3.874796
                    6          7          8
     6  Si   0.000000
     7  Si   3.874796   0.000000
     8  Si   2.280680   5.699581   0.000000
 Stoichiometry    Si8(1+,2)
 Framework group  C2H[SGH(Si4),X(Si4)]
 Deg. of freedom     6
 Full point group                 C2H     NOp   4
 Largest Abelian subgroup         C2H     NOp   4
 Largest concise Abelian subgroup C2H     NOp   4
                         Standard orientation:                         
 ---------------------------------------------------------------------
 Center     Atomic      Atomic             Coordinates (Angstroms)
 Number     Number       Type             X           Y           Z
 ---------------------------------------------------------------------
      1         14           0        0.668443    1.255513    1.458498
      2         14           0       -0.668443   -1.255513    1.458498
      3         14           0        0.668443    1.255513   -1.458498
      4         14           0       -0.668443   -1.255513   -1.458498
      5         14           0       -1.286783    0.575029    0.000000
      6         14           0        1.286783   -0.575029    0.000000
      7         14           0       -0.668443    2.770287    0.000000
      8         14           0        0.668443   -2.770287    0.000000
 ---------------------------------------------------------------------
 Rotational constants (GHZ):      1.2632700      0.6381268      0.5822202
 Standard basis: 6-311G (5D, 7F)
 There are    53 symmetry adapted basis functions of AG  symmetry.
 There are    31 symmetry adapted basis functions of BG  symmetry.
 There are    31 symmetry adapted basis functions of AU  symmetry.
 There are    53 symmetry adapted basis functions of BU  symmetry.
 Integral buffers will be    131072 words long.
 Raffenetti 2 integral format.
 Two-electron integral symmetry is turned on.
   168 basis functions,   320 primitive gaussians,   168 cartesian basis functions
    56 alpha electrons       55 beta electrons
       nuclear repulsion energy       993.0161748784 Hartrees.
 NAtoms=    8 NActive=    8 NUniq=    3 SFac= 3.00D+00 NAtFMM=   80 NAOKFM=F Big=F
 One-electron integrals computed using PRISM.
 NBasis=   168 RedAO= T  NBF=    53    31    31    53
 NBsUse=   168 1.00D-06 NBFU=    53    31    31    53
 Harris functional with IExCor=  402 diagonalized for initial guess.
 ExpMin= 6.54D-02 ExpMax= 6.94D+04 ExpMxC= 2.33D+03 IAcc=2 IRadAn=         0 AccDes= 0.00D+00
 HarFok:  IExCor=  402 AccDes= 0.00D+00 IRadAn=         0 IDoV= 1
 ScaDFX=  1.000000  1.000000  1.000000  1.000000
 FoFCou: FMM=F IPFlag=           0 FMFlag=      100000 FMFlg1=           0
         NFxFlg=           0 DoJE=T BraDBF=F KetDBF=T FulRan=T
         Omega=  0.000000  0.000000  1.000000  0.000000  0.000000 ICntrl=     500 IOpCl=  0
         NMat0=    1 NMatS0=    1 NMatT0=    0 NMatD0=    1 NMtDS0=    0 NMtDT0=    0
         I1Cent=           4 NGrid=           0.
 Petite list used in FoFCou.
 Initial guess orbital symmetries:
 Alpha Orbitals:
       Occupied  (AG) (BU) (BU) (AG) (AU) (BG) (AG) (BU) (AG) (BU)
                 (BU) (AU) (AG) (BG) (AG) (BU) (BU) (AG) (AG) (BU)
                 (AU) (BG) (AG) (BU) (AG) (AU) (BG) (BU) (AU) (BG)
                 (AG) (BU) (AG) (AU) (BU) (BG) (BG) (AU) (BU) (AG)
                 (AG) (BU) (AU) (BU) (AG) (BG) (AG) (BU) (BG) (AG)
                 (AG) (BU) (AU) (AG) (BU) (AU)
       Virtual   (BU) (AU) (BG) (AG) (BG) (BU) (BU) (AU) (AG) (BG)
                 (BU) (AG) (BG) (AU) (BU) (AG) (AG) (BG) (BU) (AU)
                 (AG) (BU) (BG) (AU) (AG) (BU) (AG) (BU) (AU) (BU)
                 (AG) (AU) (BG) (BU) (AG) (BG) (AG) (BG) (BU) (AU)
                 (AG) (BU) (BG) (AU) (BU) (AG) (BU) (AG) (BU) (AU)
                 (AG) (BU) (AG) (AG) (AG) (BU) (BG) (BG) (AU) (BU)
                 (BG) (AU) (BU) (AU) (AG) (BG) (BG) (AU) (BU) (AG)
                 (AG) (BU) (AG) (BU) (BG) (BU) (AU) (AG) (BU) (AG)
                 (AU) (BU) (BU) (AG) (AG) (BG) (AG) (BU) (AU) (BG)
                 (BU) (AG) (AU) (BU) (BG) (AG) (BG) (AU) (BG) (BU)
                 (AU) (AG) (AG) (BU) (AG) (BG) (BU) (BU) (AU) (AG)
                 (BU) (AG)
 Beta  Orbitals:
       Occupied  (AG) (BU) (BU) (AG) (AU) (BG) (AG) (BU) (AG) (BU)
                 (BU) (AU) (AG) (BG) (AG) (BU) (BU) (AG) (AG) (BU)
                 (AU) (BG) (AG) (BU) (AG) (AU) (BG) (BU) (AU) (BG)
                 (AG) (BU) (AG) (AU) (BU) (BG) (BG) (AU) (BU) (AG)
                 (AG) (BU) (AU) (BU) (AG) (BG) (AG) (BU) (BG) (AG)
                 (AG) (BU) (AU) (AG) (BU)
       Virtual   (AU) (BU) (AU) (BG) (AG) (BG) (BU) (BU) (AU) (AG)
                 (BG) (BU) (AG) (BG) (AU) (BU) (AG) (AG) (BG) (BU)
                 (AU) (AG) (BU) (BG) (AU) (AG) (BU) (AG) (BU) (AU)
                 (BU) (AG) (AU) (BG) (BU) (AG) (BG) (AG) (BG) (BU)
                 (AU) (AG) (BU) (BG) (AU) (BU) (AG) (BU) (AG) (BU)
                 (AU) (AG) (BU) (AG) (AG) (AG) (BU) (BG) (BG) (AU)
                 (BU) (BG) (AU) (BU) (AU) (AG) (BG) (BG) (AU) (BU)
                 (AG) (AG) (BU) (AG) (BU) (BG) (BU) (AU) (AG) (BU)
                 (AG) (AU) (BU) (BU) (AG) (AG) (BG) (AG) (BU) (AU)
                 (BG) (BU) (AG) (AU) (BU) (BG) (AG) (BG) (AU) (BG)
                 (BU) (AU) (AG) (AG) (BU) (AG) (BG) (BU) (BU) (AU)
                 (AG) (BU) (AG)
 The electronic state of the initial guess is 2-AU.
 Initial guess <Sx>= 0.0000 <Sy>= 0.0000 <Sz>= 0.5000 <S**2>= 0.7500 S= 0.5000
 Requested convergence on RMS density matrix=1.00D-08 within 128 cycles.
 Requested convergence on MAX density matrix=1.00D-06.
 Requested convergence on             energy=1.00D-06.
 No special actions if energy rises.
 Keep R1 and R2 ints in memory in canonical form, NReq=204123927.
 Integral accuracy reduced to 1.0D-05 until final iterations.
 Initial convergence to 1.0D-05 achieved.  Increase integral accuracy.
 SCF Done:  E(UB3LYP) =  -2315.60348600     A.U. after   16 cycles
             Convg  =    0.2619D-08             -V/T =  2.0013
 <Sx>= 0.0000 <Sy>= 0.0000 <Sz>= 0.5000 <S**2>= 0.7603 S= 0.5051
 <L.S>= 0.000000000000E+00
 Annihilation of the first spin contaminant:
 S**2 before annihilation     0.7603,   after     0.7501
 QCSCF skips out because SCF is already converged.
 Range of M.O.s used for correlation:     1   168
 NBasis=   168 NAE=    56 NBE=    55 NFC=     0 NFV=     0
 NROrb=    168 NOA=    56 NOB=    55 NVA=   112 NVB=   113

 **** Warning!!: The smallest beta delta epsilon is  0.50497065D-01

 Symmetrizing basis deriv contribution to polar:
 IMax=3 JMax=2 DiffMx= 0.00D+00
 G2DrvN: will do     9 centers at a time, making    1 passes doing MaxLOS=1.
 Calling FoFCou, ICntrl=  3107 FMM=F I1Cent=   0 AccDes= 0.00D+00.
 FoFDir/FoFCou used for L=0 through L=1.
 End of G2Drv Frequency-dependent properties file   721 does not exist.
 End of G2Drv Frequency-dependent properties file   722 does not exist.
          IDoAtm=11111111
          Differentiating once with respect to electric field.
                with respect to dipole field.
          Differentiating once with respect to nuclear coordinates.
          Keep R1 and R2 ints in memory in canonical form, NReq=202344457.
          There are    12 degrees of freedom in the 1st order CPHF.  IDoFFX=4.
     12 vectors produced by pass  0 Test12= 1.04D-13 8.33D-09 XBig12= 2.57D+03 1.71D+01.
 AX will form    12 AO Fock derivatives at one time.
     12 vectors produced by pass  1 Test12= 1.04D-13 8.33D-09 XBig12= 1.17D+03 8.03D+00.
     12 vectors produced by pass  2 Test12= 1.04D-13 8.33D-09 XBig12= 8.14D+01 2.26D+00.
     12 vectors produced by pass  3 Test12= 1.04D-13 8.33D-09 XBig12= 3.44D+00 5.43D-01.
     12 vectors produced by pass  4 Test12= 1.04D-13 8.33D-09 XBig12= 2.05D-01 1.18D-01.
     12 vectors produced by pass  5 Test12= 1.04D-13 8.33D-09 XBig12= 1.03D-02 3.06D-02.
     12 vectors produced by pass  6 Test12= 1.04D-13 8.33D-09 XBig12= 2.80D-04 3.97D-03.
     12 vectors produced by pass  7 Test12= 1.04D-13 8.33D-09 XBig12= 8.71D-06 5.83D-04.
     12 vectors produced by pass  8 Test12= 1.04D-13 8.33D-09 XBig12= 2.76D-07 1.09D-04.
     11 vectors produced by pass  9 Test12= 1.04D-13 8.33D-09 XBig12= 3.63D-09 1.16D-05.
      4 vectors produced by pass 10 Test12= 1.04D-13 8.33D-09 XBig12= 4.85D-11 1.20D-06.
      3 vectors produced by pass 11 Test12= 1.04D-13 8.33D-09 XBig12= 3.45D-13 8.62D-08.
      1 vectors produced by pass 12 Test12= 1.04D-13 8.33D-09 XBig12= 3.77D-15 1.34D-08.
 Inverted reduced A of dimension   127 with in-core refinement.
 Isotropic polarizability for W=    0.000000      223.30 Bohr**3.
 End of Minotr Frequency-dependent properties file   721 does not exist.
 End of Minotr Frequency-dependent properties file   722 does not exist.

 **********************************************************************

            Population analysis using the SCF density.

 **********************************************************************

 Orbital symmetries:
 Alpha Orbitals:
       Occupied  (BU) (AG) (AU) (BG) (AG) (BU) (AG) (BU) (BU) (AU)
                 (AG) (BG) (AG) (BU) (AG) (BU) (AG) (AU) (BU) (BG)
                 (AG) (BU) (AU) (BG) (AG) (BU) (AU) (AG) (BG) (BU)
                 (AU) (BG) (AG) (BU) (BG) (AU) (AG) (BU) (BU) (AG)
                 (AG) (BU) (AU) (BU) (AG) (BG) (AG) (BU) (BG) (AG)
                 (AG) (BU) (AU) (BU) (AG) (AU)
       Virtual   (BU) (AU) (BG) (AG) (BG) (BU) (BU) (AU) (AG) (BG)
                 (BU) (AG) (BG) (AU) (BU) (AG) (AG) (BG) (AU) (BU)
                 (AG) (AU) (BG) (BU) (BU) (AG) (AG) (BU) (AU) (BU)
                 (AU) (AG) (BG) (BU) (AG) (BG) (AG) (BG) (BU) (AU)
                 (AG) (BU) (BG) (AU) (BU) (AG) (BU) (AG) (BU) (AU)
                 (BU) (AG) (AG) (AG) (AG) (BU) (BG) (AU) (BG) (BG)
                 (BU) (AU) (BU) (AU) (AG) (BG) (BG) (AU) (BU) (AG)
                 (AG) (BU) (AG) (BG) (BU) (AU) (BU) (AG) (BU) (AG)
                 (AU) (BU) (BU) (AG) (AG) (AG) (BG) (BU) (AU) (BG)
                 (BU) (AG) (AU) (BG) (BU) (AG) (AU) (BG) (BG) (BU)
                 (AU) (AG) (AG) (BU) (AG) (BG) (BU) (AU) (BU) (AG)
                 (BU) (AG)
 Beta  Orbitals:
       Occupied  (BU) (AG) (AU) (BG) (AG) (BU) (AG) (BU) (BU) (AU)
                 (AG) (BG) (AG) (BU) (AG) (BU) (AG) (BU) (AU) (BG)
                 (AG) (AU) (BU) (BG) (AG) (BU) (BG) (AG) (AU) (BU)
                 (AU) (BG) (AG) (BU) (AG) (BU) (BG) (AU) (BU) (AG)
                 (AG) (BU) (AU) (BU) (AG) (BG) (AG) (BU) (BG) (AG)
                 (AG) (BU) (AU) (AG) (BU)
       Virtual   (AU) (BU) (AU) (BG) (AG) (BG) (BU) (BU) (AU) (AG)
                 (BG) (BU) (AG) (BG) (AU) (BU) (AG) (AG) (BG) (BU)
                 (AU) (AG) (AU) (BG) (BU) (AG) (BU) (AG) (BU) (AU)
                 (BU) (AU) (AG) (BG) (BU) (AG) (BG) (AG) (BG) (BU)
                 (AU) (AG) (BU) (BG) (AU) (BU) (AG) (BU) (AG) (BU)
                 (AU) (BU) (AG) (AG) (AG) (AG) (BU) (BG) (AU) (BG)
                 (BU) (BG) (AU) (BU) (AU) (AG) (BG) (BG) (AU) (BU)
                 (AG) (AG) (BU) (AG) (BG) (BU) (AU) (BU) (AG) (BU)
                 (AG) (AU) (BU) (BU) (AG) (AG) (AG) (BG) (BU) (AU)
                 (BG) (BU) (AG) (AU) (BG) (BU) (AG) (BG) (AU) (BG)
                 (BU) (AU) (AG) (AG) (BU) (AG) (BG) (BU) (AU) (BU)
                 (AG) (BU) (AG)
 The electronic state is 2-AU.
 Alpha  occ. eigenvalues --  -66.31589 -66.31589 -66.31589 -66.31589 -66.30668
 Alpha  occ. eigenvalues --  -66.30668 -66.28916 -66.28916  -5.48580  -5.48578
 Alpha  occ. eigenvalues --   -5.48578  -5.48576  -5.48324  -5.48319  -5.46006
 Alpha  occ. eigenvalues --   -5.46006  -3.84439  -3.84437  -3.84436  -3.84435
 Alpha  occ. eigenvalues --   -3.84344  -3.84343  -3.84340  -3.84340  -3.84135
 Alpha  occ. eigenvalues --   -3.84132  -3.84121  -3.84120  -3.84119  -3.84118
 Alpha  occ. eigenvalues --   -3.84056  -3.84056  -3.83918  -3.83916  -3.81820
 Alpha  occ. eigenvalues --   -3.81820  -3.81691  -3.81691  -3.81572  -3.81572
 Alpha  occ. eigenvalues --   -0.88951  -0.78618  -0.69961  -0.68179  -0.65194
 Alpha  occ. eigenvalues --   -0.58932  -0.54981  -0.49344  -0.48047  -0.45992
 Alpha  occ. eigenvalues --   -0.44878  -0.43205  -0.42942  -0.39198  -0.38497
 Alpha  occ. eigenvalues --   -0.38099
 Alpha virt. eigenvalues --   -0.27385  -0.27096  -0.24686  -0.22369  -0.22048
 Alpha virt. eigenvalues --   -0.21334  -0.19669  -0.19157  -0.16889  -0.16241
 Alpha virt. eigenvalues --   -0.15270  -0.13922  -0.11767  -0.09738  -0.09214
 Alpha virt. eigenvalues --   -0.07503  -0.02947  -0.02420   0.00055   0.00099
 Alpha virt. eigenvalues --    0.00870   0.02015   0.02046   0.02376   0.03217
 Alpha virt. eigenvalues --    0.03278   0.04080   0.04580   0.04998   0.05292
 Alpha virt. eigenvalues --    0.06210   0.06437   0.08559   0.09285   0.09965
 Alpha virt. eigenvalues --    0.10763   0.12588   0.12633   0.13664   0.15449
 Alpha virt. eigenvalues --    0.20472   0.25776   0.31428   0.33083   0.34399
 Alpha virt. eigenvalues --    0.36955   0.38473   0.44785   0.82105   0.85185
 Alpha virt. eigenvalues --    0.87466   0.88102   0.89922   0.91414   0.92709
 Alpha virt. eigenvalues --    0.93528   0.94888   0.96241   0.96350   0.99092
 Alpha virt. eigenvalues --    0.99261   0.99826   1.00743   1.01163   1.02593
 Alpha virt. eigenvalues --    1.02746   1.07285   1.08772   1.09908   1.11013
 Alpha virt. eigenvalues --    1.15319   1.18458   5.09675   5.10150   5.11861
 Alpha virt. eigenvalues --    5.15884   5.16706   5.20650   5.24856   5.35070
 Alpha virt. eigenvalues --   10.97484  10.98434  10.98777  10.99960  11.01511
 Alpha virt. eigenvalues --   11.02165  11.02690  11.03458  11.04368  11.05199
 Alpha virt. eigenvalues --   11.06916  11.07070  11.07127  11.07856  11.08212
 Alpha virt. eigenvalues --   11.09939  11.10580  11.10658  11.13858  11.18666
 Alpha virt. eigenvalues --   11.19252  11.23963  11.26299  11.28868 140.52347
 Alpha virt. eigenvalues --  140.52667 140.55419 140.59032 140.59635 140.63653
 Alpha virt. eigenvalues --  140.69877 140.83289
  Beta  occ. eigenvalues --  -66.31500 -66.31500 -66.31500 -66.31500 -66.30659
  Beta  occ. eigenvalues --  -66.30659 -66.28874 -66.28874  -5.48486  -5.48484
  Beta  occ. eigenvalues --   -5.48484  -5.48482  -5.48315  -5.48310  -5.45965
  Beta  occ. eigenvalues --   -5.45964  -3.84316  -3.84315  -3.84314  -3.84313
  Beta  occ. eigenvalues --   -3.84198  -3.84192  -3.84192  -3.84187  -3.84149
  Beta  occ. eigenvalues --   -3.84149  -3.84026  -3.84021  -3.84021  -3.84020
  Beta  occ. eigenvalues --   -3.83999  -3.83994  -3.83915  -3.83914  -3.81675
  Beta  occ. eigenvalues --   -3.81674  -3.81663  -3.81663  -3.81553  -3.81553
  Beta  occ. eigenvalues --   -0.88660  -0.78165  -0.69415  -0.67898  -0.64795
  Beta  occ. eigenvalues --   -0.58059  -0.54260  -0.48969  -0.46929  -0.45177
  Beta  occ. eigenvalues --   -0.44745  -0.42833  -0.42429  -0.38308  -0.38088
  Beta virt. eigenvalues --   -0.33038  -0.27202  -0.26713  -0.23660  -0.21934
  Beta virt. eigenvalues --   -0.21326  -0.20985  -0.19449  -0.18729  -0.16569
  Beta virt. eigenvalues --   -0.15671  -0.14948  -0.13339  -0.10922  -0.09187
  Beta virt. eigenvalues --   -0.09147  -0.07385  -0.02789  -0.02245   0.00153
  Beta virt. eigenvalues --    0.00271   0.00920   0.02255   0.02425   0.02510
  Beta virt. eigenvalues --    0.03397   0.03514   0.04219   0.04603   0.05286
  Beta virt. eigenvalues --    0.05382   0.06459   0.06684   0.08743   0.09476
  Beta virt. eigenvalues --    0.10094   0.10922   0.12672   0.12871   0.13778
  Beta virt. eigenvalues --    0.15633   0.20629   0.25956   0.31781   0.33406
  Beta virt. eigenvalues --    0.34638   0.37180   0.38791   0.44908   0.82211
  Beta virt. eigenvalues --    0.85647   0.87990   0.88266   0.90063   0.91492
  Beta virt. eigenvalues --    0.93132   0.93627   0.95299   0.96491   0.96697
  Beta virt. eigenvalues --    0.99339   0.99639   1.00213   1.00940   1.01513
  Beta virt. eigenvalues --    1.02749   1.02910   1.07578   1.09034   1.10011
  Beta virt. eigenvalues --    1.11140   1.15551   1.18641   5.09827   5.10359
  Beta virt. eigenvalues --    5.11946   5.16107   5.16805   5.20780   5.25012
  Beta virt. eigenvalues --    5.35128  10.97688  10.98630  10.98837  11.00108
  Beta virt. eigenvalues --   11.01600  11.02237  11.02902  11.03514  11.04472
  Beta virt. eigenvalues --   11.05321  11.06949  11.07121  11.07269  11.08027
  Beta virt. eigenvalues --   11.08261  11.09971  11.10739  11.10759  11.14040
  Beta virt. eigenvalues --   11.18714  11.19395  11.23996  11.26417  11.28954
  Beta virt. eigenvalues --  140.52414 140.52758 140.55462 140.59124 140.59669
  Beta virt. eigenvalues --  140.63705 140.69940 140.83309
          Condensed to atoms (all electrons):
              1          2          3          4          5          6
     1  Si  14.032378  -0.026049   0.056251  -0.023667  -0.064908  -0.222000
     2  Si  -0.026049  14.032378  -0.023667   0.056251  -0.222000  -0.064908
     3  Si   0.056251  -0.023667  14.032378  -0.026049  -0.064908  -0.222000
     4  Si  -0.023667   0.056251  -0.026049  14.032378  -0.222000  -0.064908
     5  Si  -0.064908  -0.222000  -0.064908  -0.222000  14.993876  -0.126166
     6  Si  -0.222000  -0.064908  -0.222000  -0.064908  -0.126166  14.993876
     7  Si   0.041031   0.014466   0.041031   0.014466  -0.139277  -0.005110
     8  Si   0.014466   0.041031   0.014466   0.041031  -0.005110  -0.139277
              7          8
     1  Si   0.041031   0.014466
     2  Si   0.014466   0.041031
     3  Si   0.041031   0.014466
     4  Si   0.014466   0.041031
     5  Si  -0.139277  -0.005110
     6  Si  -0.005110  -0.139277
     7  Si  13.766291   0.002593
     8  Si   0.002593  13.766291
 Mulliken atomic charges:
              1
     1  Si   0.192499
     2  Si   0.192499
     3  Si   0.192499
     4  Si   0.192499
     5  Si  -0.149507
     6  Si  -0.149507
     7  Si   0.264509
     8  Si   0.264509
 Sum of Mulliken atomic charges =   1.00000
 Mulliken charges with hydrogens summed into heavy atoms:
              1
     1  Si   0.192499
     2  Si   0.192499
     3  Si   0.192499
     4  Si   0.192499
     5  Si  -0.149507
     6  Si  -0.149507
     7  Si   0.264509
     8  Si   0.264509
 Sum of Mulliken charges with hydrogens summed into heavy atoms =   1.00000
          Atomic-Atomic Spin Densities.
              1          2          3          4          5          6
     1  Si   0.205737  -0.010700  -0.006869  -0.002202   0.030501  -0.017445
     2  Si  -0.010700   0.205737  -0.002202  -0.006869  -0.017445   0.030501
     3  Si  -0.006869  -0.002202   0.205737  -0.010700   0.030501  -0.017445
     4  Si  -0.002202  -0.006869  -0.010700   0.205737  -0.017445   0.030501
     5  Si   0.030501  -0.017445   0.030501  -0.017445  -0.026903  -0.008462
     6  Si  -0.017445   0.030501  -0.017445   0.030501  -0.008462  -0.026903
     7  Si   0.004992  -0.000302   0.004992  -0.000302   0.003522   0.006472
     8  Si  -0.000302   0.004992  -0.000302   0.004992   0.006472   0.003522
              7          8
     1  Si   0.004992  -0.000302
     2  Si  -0.000302   0.004992
     3  Si   0.004992  -0.000302
     4  Si  -0.000302   0.004992
     5  Si   0.003522   0.006472
     6  Si   0.006472   0.003522
     7  Si   0.072679  -0.000219
     8  Si  -0.000219   0.072679
 Mulliken atomic spin densities:
              1
     1  Si   0.203712
     2  Si   0.203712
     3  Si   0.203712
     4  Si   0.203712
     5  Si   0.000742
     6  Si   0.000742
     7  Si   0.091833
     8  Si   0.091833
 Sum of Mulliken atomic spin densities =   1.00000
 APT atomic charges:
              1
     1  Si   0.122100
     2  Si   0.122100
     3  Si   0.122100
     4  Si   0.122100
     5  Si  -0.109101
     6  Si  -0.109101
     7  Si   0.364902
     8  Si   0.364902
 Sum of APT charges=   1.00000
 APT Atomic charges with hydrogens summed into heavy atoms:
              1
     1  Si   0.122100
     2  Si   0.122100
     3  Si   0.122100
     4  Si   0.122100
     5  Si  -0.109101
     6  Si  -0.109101
     7  Si   0.364902
     8  Si   0.364902
 Sum of APT charges=   1.00000
 Electronic spatial extent (au):  <R**2>=           2042.7990
 Charge=              1.0000 electrons
 Dipole moment (field-independent basis, Debye):
    X=              0.0000    Y=              0.0000    Z=              0.0000  Tot=              0.0000
 Quadrupole moment (field-independent basis, Debye-Ang):
   XX=            -94.2534   YY=            -86.0726   ZZ=            -91.5592
   XY=              1.4462   XZ=              0.0000   YZ=              0.0000
 Traceless Quadrupole moment (field-independent basis, Debye-Ang):
   XX=             -3.6250   YY=              4.5558   ZZ=             -0.9308
   XY=              1.4462   XZ=              0.0000   YZ=              0.0000
 Octapole moment (field-independent basis, Debye-Ang**2):
  XXX=              0.0000  YYY=              0.0000  ZZZ=              0.0000  XYY=              0.0000
  XXY=              0.0000  XXZ=              0.0000  XZZ=              0.0000  YZZ=              0.0000
  YYZ=              0.0000  XYZ=              0.0000
 Hexadecapole moment (field-independent basis, Debye-Ang**3):
 XXXX=           -593.1940 YYYY=          -1767.1876 ZZZZ=           -773.8037 XXXY=             79.8391
 XXXZ=              0.0000 YYYX=             76.0822 YYYZ=              0.0000 ZZZX=              0.0000
 ZZZY=              0.0000 XXYY=           -394.4714 XXZZ=           -225.4015 YYZZ=           -413.2006
 XXYZ=              0.0000 YYXZ=              0.0000 ZZXY=             21.7721
 N-N= 9.930161748784D+02 E-N=-1.121449488123D+04  KE= 3.468176561932D+03
 Symmetry AG   KE= 1.227299155783D+03
 Symmetry BG   KE= 5.075628814859D+02
 Symmetry AU   KE= 5.080520918673D+02
 Symmetry BU   KE= 1.225262432796D+03
  Exact polarizability: 170.591 -12.773 293.509   0.000   0.000 205.803
 Approx polarizability: 482.744 -35.530 940.214   0.000   0.000 689.610
                          Isotropic Fermi Contact Couplings
        Atom                 a.u.       MegaHertz       Gauss      10(-4) cm-1
     1  Si(29)             0.13838    -122.98044     -43.88248     -41.02186
     2  Si(29)             0.13838    -122.98044     -43.88248     -41.02186
     3  Si(29)             0.13838    -122.98044     -43.88248     -41.02186
     4  Si(29)             0.13838    -122.98044     -43.88248     -41.02186
     5  Si(29)             0.00130      -1.15487      -0.41209      -0.38522
     6  Si(29)             0.00130      -1.15487      -0.41209      -0.38522
     7  Si(29)            -0.00651       5.78627       2.06468       1.93009
     8  Si(29)            -0.00651       5.78627       2.06468       1.93009
 --------------------------------------------------------
       Center         ----  Spin Dipole Couplings  ----
                      3XX-RR        3YY-RR        3ZZ-RR
 --------------------------------------------------------
     1   Atom        0.206289     -0.206645      0.000357
     2   Atom        0.206289     -0.206645      0.000357
     3   Atom        0.206289     -0.206645      0.000357
     4   Atom        0.206289     -0.206645      0.000357
     5   Atom       -0.093979     -0.037829      0.131808
     6   Atom       -0.093979     -0.037829      0.131808
     7   Atom       -0.136989     -0.140598      0.277587
     8   Atom       -0.136989     -0.140598      0.277587
 --------------------------------------------------------
                        XY            XZ            YZ
 --------------------------------------------------------
     1   Atom        0.017992      0.314309     -0.007367
     2   Atom        0.017992     -0.314309      0.007367
     3   Atom        0.017992     -0.314309      0.007367
     4   Atom        0.017992      0.314309     -0.007367
     5   Atom       -0.012844      0.000000      0.000000
     6   Atom       -0.012844      0.000000      0.000000
     7   Atom        0.012373      0.000000      0.000000
     8   Atom        0.012373      0.000000      0.000000
 --------------------------------------------------------


 ---------------------------------------------------------------------------------
              Anisotropic Spin Dipole Couplings in Principal Axis System
 ---------------------------------------------------------------------------------

       Atom             a.u.   MegaHertz   Gauss  10(-4) cm-1        Axes

              Baa    -0.2366    25.098     8.956     8.372 -0.5191  0.4851  0.7037
     1 Si(29) Bbb    -0.1976    20.967     7.481     6.994  0.2732  0.8743 -0.4011
              Bcc     0.4342   -46.065   -16.437   -15.366  0.8099  0.0160  0.5864
 
              Baa    -0.2366    25.098     8.956     8.372  0.5191 -0.4851  0.7037
     2 Si(29) Bbb    -0.1976    20.967     7.481     6.994  0.2732  0.8743  0.4011
              Bcc     0.4342   -46.065   -16.437   -15.366  0.8099  0.0160 -0.5864
 
              Baa    -0.2366    25.098     8.956     8.372  0.5191 -0.4851  0.7037
     3 Si(29) Bbb    -0.1976    20.967     7.481     6.994  0.2732  0.8743  0.4011
              Bcc     0.4342   -46.065   -16.437   -15.366  0.8099  0.0160 -0.5864
 
              Baa    -0.2366    25.098     8.956     8.372 -0.5191  0.4851  0.7037
     4 Si(29) Bbb    -0.1976    20.967     7.481     6.994  0.2732  0.8743 -0.4011
              Bcc     0.4342   -46.065   -16.437   -15.366  0.8099  0.0160  0.5864
 
              Baa    -0.0968    10.267     3.663     3.425  0.9771  0.2129  0.0000
     5 Si(29) Bbb    -0.0350     3.716     1.326     1.240 -0.2129  0.9771  0.0000
              Bcc     0.1318   -13.983    -4.989    -4.664  0.0000  0.0000  1.0000
 
              Baa    -0.0968    10.267     3.663     3.425  0.9771  0.2129  0.0000
     6 Si(29) Bbb    -0.0350     3.716     1.326     1.240 -0.2129  0.9771  0.0000
              Bcc     0.1318   -13.983    -4.989    -4.664  0.0000  0.0000  1.0000
 
              Baa    -0.1513    16.050     5.727     5.354 -0.6541  0.7564  0.0000
     7 Si(29) Bbb    -0.1263    13.397     4.781     4.469  0.7564  0.6541  0.0000
              Bcc     0.2776   -29.448   -10.508    -9.823  0.0000  0.0000  1.0000
 
              Baa    -0.1513    16.050     5.727     5.354 -0.6541  0.7564  0.0000
     8 Si(29) Bbb    -0.1263    13.397     4.781     4.469  0.7564  0.6541  0.0000
              Bcc     0.2776   -29.448   -10.508    -9.823  0.0000  0.0000  1.0000
 

 ---------------------------------------------------------------------------------

 Calling FoFJK, ICntrl=    100127 FMM=F ISym2X=1 I1Cent= 0 IOpClX= 1 NMat=1 NMatS=1 NMatT=0.
 Full mass-weighted force constant matrix:
 Low frequencies --- -105.9042  -94.3613  -90.0217  -75.8602   -0.0018    0.0011
 Low frequencies ---    0.0023   93.7451  119.4538
 ******    1 imaginary frequencies (negative Signs) ****** 
 Diagonal vibrational polarizability:
        4.0487013       6.0671102       6.5299424
 Harmonic frequencies (cm**-1), IR intensities (KM/Mole), Raman scattering
 activities (A**4/AMU), depolarization ratios for plane and unpolarized
 incident light, reduced masses (AMU), force constants (mDyne/A),
 and normal coordinates:
                     1                      2                      3
                    AU                     AU                     AG
 Frequencies --  -105.9042                93.7451               116.8944
 Red. masses --    27.9769                27.9769                27.9769
 Frc consts  --     0.1849                 0.1449                 0.2252
 IR Inten    --     1.2844                 0.1059                 0.0000
  Atom  AN      X      Y      Z        X      Y      Z        X      Y      Z
     1  14     0.16   0.32  -0.08     0.36  -0.07  -0.19     0.29   0.29  -0.08
     2  14    -0.16  -0.32  -0.08    -0.36   0.07  -0.19    -0.29  -0.29  -0.08
     3  14    -0.16  -0.32  -0.08    -0.36   0.07  -0.19     0.29   0.29   0.08
     4  14     0.16   0.32  -0.08     0.36  -0.07  -0.19    -0.29  -0.29   0.08
     5  14     0.00   0.00   0.41     0.00   0.00  -0.02     0.33  -0.15   0.00
     6  14     0.00   0.00   0.41     0.00   0.00  -0.02    -0.33   0.15   0.00
     7  14     0.00   0.00  -0.25     0.00   0.00   0.39    -0.13   0.01   0.00
     8  14     0.00   0.00  -0.25     0.00   0.00   0.39     0.13  -0.01   0.00
                     4                      5                      6
                    BU                     BG                     BU
 Frequencies --   119.4538               129.2409               236.4289
 Red. masses --    27.9769                27.9769                27.9769
 Frc consts  --     0.2352                 0.2753                 0.9214
 IR Inten    --     0.6265                 0.0000                 2.3842
  Atom  AN      X      Y      Z        X      Y      Z        X      Y      Z
     1  14     0.20   0.17  -0.22     0.19   0.23   0.39    -0.08  -0.02   0.29
     2  14     0.20   0.17   0.22     0.19   0.23  -0.39    -0.08  -0.02  -0.29
     3  14     0.20   0.17   0.22    -0.19  -0.23   0.39    -0.08  -0.02  -0.29
     4  14     0.20   0.17  -0.22    -0.19  -0.23  -0.39    -0.08  -0.02   0.29
     5  14     0.06  -0.20   0.00     0.00   0.00   0.02     0.47   0.03   0.00
     6  14     0.06  -0.20   0.00     0.00   0.00  -0.02     0.47   0.03   0.00
     7  14    -0.46  -0.13   0.00     0.00   0.00  -0.11    -0.31   0.01   0.00
     8  14    -0.46  -0.13   0.00     0.00   0.00   0.11    -0.31   0.01   0.00
                     7                      8                      9
                    AG                     BG                     AU
 Frequencies --   248.7963               269.5488               278.1504
 Red. masses --    27.9769                27.9769                27.9769
 Frc consts  --     1.0203                 1.1976                 1.2753
 IR Inten    --     0.0000                 0.0000                 0.1331
  Atom  AN      X      Y      Z        X      Y      Z        X      Y      Z
     1  14    -0.03  -0.05   0.39     0.03   0.25  -0.10     0.27  -0.24   0.20
     2  14     0.03   0.05   0.39     0.03   0.25   0.10    -0.27   0.24   0.20
     3  14    -0.03  -0.05  -0.39    -0.03  -0.25  -0.10    -0.27   0.24   0.20
     4  14     0.03   0.05  -0.39    -0.03  -0.25   0.10     0.27  -0.24   0.20
     5  14     0.29  -0.22   0.00     0.00   0.00  -0.40     0.00   0.00  -0.01
     6  14    -0.29   0.22   0.00     0.00   0.00   0.40     0.00   0.00  -0.01
     7  14     0.11  -0.23   0.00     0.00   0.00   0.44     0.00   0.00  -0.39
     8  14    -0.11   0.23   0.00     0.00   0.00  -0.44     0.00   0.00  -0.39
                    10                     11                     12
                    AG                     BU                     AG
 Frequencies --   295.3088               315.1175               329.5475
 Red. masses --    27.9769                27.9769                27.9769
 Frc consts  --     1.4375                 1.6368                 1.7901
 IR Inten    --     0.0000                 4.7218                 0.0000
  Atom  AN      X      Y      Z        X      Y      Z        X      Y      Z
     1  14     0.26  -0.29  -0.01    -0.19  -0.12  -0.32     0.06   0.07  -0.13
     2  14    -0.26   0.29  -0.01    -0.19  -0.12   0.32    -0.06  -0.07  -0.13
     3  14     0.26  -0.29   0.01    -0.19  -0.12   0.32     0.06   0.07   0.13
     4  14    -0.26   0.29   0.01    -0.19  -0.12  -0.32    -0.06  -0.07   0.13
     5  14    -0.05   0.07   0.00     0.34  -0.04   0.00    -0.30  -0.31   0.00
     6  14     0.05  -0.07   0.00     0.34  -0.04   0.00     0.30   0.31   0.00
     7  14    -0.34  -0.27   0.00     0.04   0.28   0.00     0.29  -0.42   0.00
     8  14     0.34   0.27   0.00     0.04   0.28   0.00    -0.29   0.42   0.00
                    13                     14                     15
                    BG                     BU                     AU
 Frequencies --   349.1692               380.0109               390.1505
 Red. masses --    27.9769                27.9769                27.9769
 Frc consts  --     2.0097                 2.3804                 2.5091
 IR Inten    --     0.0000                16.7206                17.4072
  Atom  AN      X      Y      Z        X      Y      Z        X      Y      Z
     1  14    -0.25   0.25  -0.01    -0.21   0.28  -0.01    -0.13  -0.29  -0.21
     2  14    -0.25   0.25   0.01    -0.21   0.28   0.01     0.13   0.29  -0.21
     3  14     0.25  -0.25  -0.01    -0.21   0.28   0.01     0.13   0.29  -0.21
     4  14     0.25  -0.25   0.01    -0.21   0.28  -0.01    -0.13  -0.29  -0.21
     5  14     0.00   0.00   0.47     0.16  -0.24   0.00     0.00   0.00   0.45
     6  14     0.00   0.00  -0.47     0.16  -0.24   0.00     0.00   0.00   0.45
     7  14     0.00   0.00   0.18     0.26  -0.32   0.00     0.00   0.00  -0.04
     8  14     0.00   0.00  -0.18     0.26  -0.32   0.00     0.00   0.00  -0.04
                    16                     17                     18
                    AG                     BU                     AG
 Frequencies --   419.4004               556.2728               563.7636
 Red. masses --    27.9769                27.9769                27.9769
 Frc consts  --     2.8994                 5.1007                 5.2389
 IR Inten    --     0.0000                38.9903                 0.0000
  Atom  AN      X      Y      Z        X      Y      Z        X      Y      Z
     1  14    -0.17  -0.17  -0.28    -0.03  -0.05  -0.13    -0.08   0.16   0.01
     2  14     0.17   0.17  -0.28    -0.03  -0.05   0.13     0.08  -0.16   0.01
     3  14    -0.17  -0.17   0.28    -0.03  -0.05   0.13    -0.08   0.16  -0.01
     4  14     0.17   0.17   0.28    -0.03  -0.05  -0.13     0.08  -0.16  -0.01
     5  14     0.44  -0.12   0.00     0.09   0.52   0.00     0.09   0.51   0.00
     6  14    -0.44   0.12   0.00     0.09   0.52   0.00    -0.09  -0.51   0.00
     7  14     0.06  -0.12   0.00    -0.04  -0.42   0.00     0.00  -0.41   0.00
     8  14    -0.06   0.12   0.00    -0.04  -0.42   0.00     0.00   0.41   0.00

 -------------------
 - Thermochemistry -
 -------------------
 Temperature   298.150 Kelvin.  Pressure   1.00000 Atm.
 Atom     1 has atomic number 14 and mass  27.97693
 Atom     2 has atomic number 14 and mass  27.97693
 Atom     3 has atomic number 14 and mass  27.97693
 Atom     4 has atomic number 14 and mass  27.97693
 Atom     5 has atomic number 14 and mass  27.97693
 Atom     6 has atomic number 14 and mass  27.97693
 Atom     7 has atomic number 14 and mass  27.97693
 Atom     8 has atomic number 14 and mass  27.97693
 Molecular mass:   223.81543 amu.
 Principal axes and moments of inertia in atomic units:
                           1         2         3
     Eigenvalues --  1428.626702828.185973099.75700
           X           -0.10986   0.00000   0.99395
           Y            0.99395   0.00000   0.10986
           Z            0.00000   1.00000   0.00000
 This molecule is an asymmetric top.
 Rotational symmetry number  2.
 Warning -- assumption of classical behavior for rotation
           may cause significant error
 Rotational temperatures (Kelvin)      0.06063     0.03063     0.02794
 Rotational constants (GHZ):           1.26327     0.63813     0.58222
    1 imaginary frequencies ignored.
 Zero-point vibrational energy      30450.9 (Joules/Mol)
                                    7.27795 (Kcal/Mol)
 Warning -- explicit consideration of  17 degrees of freedom as
           vibrations may cause significant error
 Vibrational temperatures:    134.88   168.18   171.87   185.95   340.17
          (Kelvin)            357.96   387.82   400.20   424.88   453.38
                              474.14   502.38   546.75   561.34   603.42
                              800.35   811.13
 
 Zero-point correction=                           0.011598 (Hartree/Particle)
 Thermal correction to Energy=                    0.022041
 Thermal correction to Enthalpy=                  0.022985
 Thermal correction to Gibbs Free Energy=        -0.025349
 Sum of electronic and zero-point Energies=          -2315.591888
 Sum of electronic and thermal Energies=             -2315.581445
 Sum of electronic and thermal Enthalpies=           -2315.580501
 Sum of electronic and thermal Free Energies=        -2315.628835
 
                     E (Thermal)             CV                S
                      KCal/Mol        Cal/Mol-Kelvin    Cal/Mol-Kelvin
 Total                   13.831             33.889            101.727
 Electronic               0.000              0.000              1.377
 Translational            0.889              2.981             42.120
 Rotational               0.889              2.981             29.528
 Vibrational             12.053             27.927             28.702
 Vibration     1          0.603              1.954              3.580
 Vibration     2          0.608              1.935              3.151
 Vibration     3          0.609              1.933              3.109
 Vibration     4          0.612              1.924              2.957
 Vibration     5          0.655              1.785              1.830
 Vibration     6          0.662              1.765              1.739
 Vibration     7          0.674              1.729              1.599
 Vibration     8          0.679              1.714              1.545
 Vibration     9          0.690              1.682              1.443
 Vibration    10          0.702              1.645              1.335
 Vibration    11          0.712              1.616              1.262
 Vibration    12          0.726              1.577              1.170
 Vibration    13          0.750              1.513              1.039
 Vibration    14          0.758              1.491              1.000
 Vibration    15          0.782              1.428              0.894
 Vibration    16          0.912              1.126              0.531
 Vibration    17          0.920              1.110              0.516
                       Q            Log10(Q)             Ln(Q)
 Total Bot       0.456720D+12         11.659650         26.847336
 Total V=0       0.987229D+17         16.994418         39.131094
 Vib (Bot)       0.273928D-02         -2.562364         -5.900061
 Vib (Bot)    1  0.219178D+01          0.340796          0.784712
 Vib (Bot)    2  0.174946D+01          0.242905          0.559310
 Vib (Bot)    3  0.171098D+01          0.233245          0.537068
 Vib (Bot)    4  0.157771D+01          0.198026          0.455971
 Vib (Bot)    5  0.830685D+00         -0.080564         -0.185505
 Vib (Bot)    6  0.784910D+00         -0.105180         -0.242186
 Vib (Bot)    7  0.717146D+00         -0.144392         -0.332475
 Vib (Bot)    8  0.691888D+00         -0.159964         -0.368331
 Vib (Bot)    9  0.645683D+00         -0.189981         -0.437446
 Vib (Bot)   10  0.598278D+00         -0.223097         -0.513700
 Vib (Bot)   11  0.567136D+00         -0.246313         -0.567156
 Vib (Bot)   12  0.528681D+00         -0.276807         -0.637371
 Vib (Bot)   13  0.475787D+00         -0.322587         -0.742785
 Vib (Bot)   14  0.460109D+00         -0.337139         -0.776292
 Vib (Bot)   15  0.418859D+00         -0.377932         -0.870220
 Vib (Bot)   16  0.280413D+00         -0.552202         -1.271492
 Vib (Bot)   17  0.274676D+00         -0.561179         -1.292163
 Vib (V=0)       0.592112D+03          2.772404          6.383696
 Vib (V=0)    1  0.274808D+01          0.439030          1.010904
 Vib (V=0)    2  0.231951D+01          0.365397          0.841357
 Vib (V=0)    3  0.228254D+01          0.358419          0.825290
 Vib (V=0)    4  0.215504D+01          0.333455          0.767809
 Vib (V=0)    5  0.146956D+01          0.167186          0.384960
 Vib (V=0)    6  0.143064D+01          0.155529          0.358119
 Vib (V=0)    7  0.137424D+01          0.138063          0.317902
 Vib (V=0)    8  0.135364D+01          0.131505          0.302801
 Vib (V=0)    9  0.131664D+01          0.119468          0.275086
 Vib (V=0)   10  0.127970D+01          0.107109          0.246628
 Vib (V=0)   11  0.125607D+01          0.099014          0.227989
 Vib (V=0)   12  0.122767D+01          0.089082          0.205118
 Vib (V=0)   13  0.119020D+01          0.075619          0.174120
 Vib (V=0)   14  0.117949D+01          0.071693          0.165078
 Vib (V=0)   15  0.115226D+01          0.061551          0.141725
 Vib (V=0)   16  0.107326D+01          0.030707          0.070704
 Vib (V=0)   17  0.107048D+01          0.029578          0.068107
 Electronic      0.200000D+01          0.301030          0.693147
 Translational   0.131610D+09          8.119290         18.695357
 Rotational      0.633423D+06          5.801694         13.358893
 ***** Axes restored to original set *****
 -------------------------------------------------------------------
 Center     Atomic                   Forces (Hartrees/Bohr)
 Number     Number              X              Y              Z
 -------------------------------------------------------------------
      1       14           0.016462801    0.002819673    0.016047218
      2       14          -0.016462801   -0.002819673    0.016047218
      3       14           0.016462801    0.002819673   -0.016047218
      4       14          -0.016462801   -0.002819673   -0.016047218
      5       14          -0.037269970   -0.018097239    0.000000000
      6       14           0.037269970    0.018097239    0.000000000
      7       14          -0.008282171    0.045022412    0.000000000
      8       14           0.008282171   -0.045022412    0.000000000
 -------------------------------------------------------------------
 Cartesian Forces:  Max     0.045022412 RMS     0.020176611

 GradGradGradGradGradGradGradGradGradGradGradGradGradGradGradGradGradGrad
 Berny optimization.
 Search for a local minimum.
 Step number   1 out of a maximum of    2
 All quantities printed in internal units (Hartrees-Bohrs-Radians)
 Second derivative matrix not updated -- analytic derivatives used.
     Eigenvalues ---   -0.01187   0.00930   0.01447   0.01511   0.01768
     Eigenvalues ---    0.05918   0.06554   0.07692   0.08191   0.09233
     Eigenvalues ---    0.10513   0.11498   0.12908   0.15289   0.16116
     Eigenvalues ---    0.18623   0.32762   0.33650
 Eigenvalue     1 is  -1.19D-02 should be greater than     0.000000 Eigenvector:
                          Z6        Z5        Y4        Y3        Y2
   1                    0.41013   0.41013   0.31749  -0.31749  -0.31749
                          Y1        Z8        Z7        X4        X3
   1                    0.31749  -0.25406  -0.25406   0.16349  -0.16349
 Quadratic step=4.939D-01 exceeds max=3.000D-01 adjusted using Lamda=-1.091D-01.
 Angle between NR and scaled steps=  11.39 degrees.
 Angle between quadratic step and forces=  13.51 degrees.
 ClnCor:  largest displacement from symmetrization is 1.70D-09 for atom     4.
 Linear search not attempted -- first point.
 ClnCor:  largest displacement from symmetrization is 2.22D-16 for atom     7.
 TrRot=  0.000000  0.000000  0.000000  0.000000  0.000000  0.000000
 Variable       Old X    -DE/DX   Delta X   Delta X   Delta X     New X
                                 (Linear)    (Quad)   (Total)
    X1        1.26317   0.01646   0.00000   0.04892   0.04892   1.31209
    Y1        2.37258   0.00282   0.00000   0.02471   0.02471   2.39728
    Z1        2.75616   0.01605   0.00000   0.04425   0.04425   2.80041
    X2       -1.26317  -0.01646   0.00000  -0.04892  -0.04892  -1.31209
    Y2       -2.37258  -0.00282   0.00000  -0.02471  -0.02471  -2.39728
    Z2        2.75616   0.01605   0.00000   0.04425   0.04425   2.80041
    X3        1.26317   0.01646   0.00000   0.04892   0.04892   1.31209
    Y3        2.37258   0.00282   0.00000   0.02471   0.02471   2.39728
    Z3       -2.75616  -0.01605   0.00000  -0.04425  -0.04425  -2.80041
    X4       -1.26317  -0.01646   0.00000  -0.04892  -0.04892  -1.31209
    Y4       -2.37258  -0.00282   0.00000  -0.02471  -0.02471  -2.39728
    Z4       -2.75616  -0.01605   0.00000  -0.04425  -0.04425  -2.80041
    X5       -2.43167  -0.03727   0.00000  -0.12333  -0.12333  -2.55499
    Y5        1.08665  -0.01810   0.00000  -0.01305  -0.01305   1.07359
    Z5        0.00000   0.00000   0.00000   0.00000   0.00000   0.00000
    X6        2.43167   0.03727   0.00000   0.12333   0.12333   2.55499
    Y6       -1.08665   0.01810   0.00000   0.01305   0.01305  -1.07359
    Z6        0.00000   0.00000   0.00000   0.00000   0.00000   0.00000
    X7       -1.26317  -0.00828   0.00000  -0.03374  -0.03374  -1.29692
    Y7        5.23508   0.04502   0.00000   0.13673   0.13673   5.37182
    Z7        0.00000   0.00000   0.00000   0.00000   0.00000   0.00000
    X8        1.26317   0.00828   0.00000   0.03374   0.03374   1.29692
    Y8       -5.23508  -0.04502   0.00000  -0.13673  -0.13673  -5.37182
    Z8        0.00000   0.00000   0.00000   0.00000   0.00000   0.00000
         Item               Value     Threshold  Converged?
 Maximum Force            0.045022     0.000450     NO 
 RMS     Force            0.020177     0.000300     NO 
 Maximum Displacement     0.136732     0.001800     NO 
 RMS     Displacement     0.061330     0.001200     NO 
 Predicted change in Energy=-1.936052D-02
 GradGradGradGradGradGradGradGradGradGradGradGradGradGradGradGradGradGrad

 1\1\GINC-NODE63\Freq\UB3LYP\6-311G\Si8(1+,2)\TAM\03-Apr-2012\0\\# b3ly
 p/6-311G freq scfcyc=500 scf=xqc\\si8li-cation-doublet-adiab\\1,2\Si,0
 .668443,1.255513,1.458498\Si,-0.668443,-1.255513,1.458498\Si,0.668443,
 1.255513,-1.458498\Si,-0.668443,-1.255513,-1.458498\Si,-1.286783,0.575
 029,0.\Si,1.286783,-0.575029,0.\Si,-0.668443,2.770287,0.\Si,0.668443,-
 2.770287,0.\\Version=AM64L-G09RevA.02\State=2-AU\HF=-2315.603486\S2=0.
 760275\S2-1=0.\S2A=0.750084\RMSD=2.619e-09\RMSF=2.018e-02\ZeroPoint=0.
 0115982\Thermal=0.0220406\Dipole=0.,0.,0.\DipoleDeriv=0.0651119,0.1152
 638,0.0871562,0.1764832,0.0452744,0.2859829,0.1927038,0.1754574,0.2559
 131,0.0651119,0.1152638,-0.0871562,0.1764832,0.0452744,-0.2859829,-0.1
 927038,-0.1754574,0.2559131,0.0651119,0.1152638,-0.0871562,0.1764832,0
 .0452744,-0.2859829,-0.1927038,-0.1754574,0.2559131,0.0651119,0.115263
 8,0.0871562,0.1764832,0.0452744,0.2859829,0.1927038,0.1754574,0.255913
 1,0.09843,-0.0384696,0.,-0.2018464,-0.3095565,0.,0.,0.,-0.1161777,0.09
 843,-0.0384696,0.,-0.2018464,-0.3095566,0.,0.,0.,-0.1161777,0.2713461,
 -0.1920579,0.,-0.15112,0.7190078,0.,0.,0.,0.1043514,0.2713461,-0.19205
 79,0.,-0.15112,0.7190078,0.,0.,0.,0.1043514\Polar=170.5912711,-12.7732
 844,293.5090936,0.,0.,205.8032236\PG=C02H [SGH(Si4),X(Si4)]\NImag=1\\0
 .04597561,-0.01635911,0.07016049,0.02274856,0.01756175,0.06149362,-0.0
 0561352,-0.00798029,-0.00689922,0.04597561,-0.00798029,-0.01326387,-0.
 00882756,-0.01635911,0.07016049,0.00689922,0.00882756,0.01188774,-0.02
 274856,-0.01756175,0.06149362,0.00941510,-0.00280149,0.00186140,-0.003
 17573,0.00509185,-0.00563840,0.04597561,-0.00280149,0.00832447,0.00610
 567,0.00509185,-0.00521597,-0.00478370,-0.01635911,0.07016049,-0.00186
 140,-0.00610567,-0.03430838,-0.00563840,-0.00478370,0.00306176,-0.0227
 4856,-0.01756175,0.06149362,-0.00317573,0.00509185,0.00563840,0.009415
 10,-0.00280149,-0.00186140,-0.00561352,-0.00798029,0.00689922,0.045975
 61,0.00509185,-0.00521597,0.00478370,-0.00280149,0.00832447,-0.0061056
 7,-0.00798029,-0.01326387,0.00882756,-0.01635911,0.07016049,0.00563840
 ,0.00478370,0.00306176,0.00186140,0.00610567,-0.03430838,-0.00689922,-
 0.00882756,0.01188774,0.02274856,0.01756175,0.06149362,-0.03313436,-0.
 00946023,-0.01893621,0.00353623,0.01063657,-0.00350081,-0.03313436,-0.
 00946023,0.01893621,0.00353623,0.01063657,0.00350081,0.08930503,-0.008
 64952,0.00875863,-0.01306526,0.01404998,-0.04763144,0.02502466,-0.0086
 4952,0.00875863,0.01306526,0.01404998,-0.04763144,-0.02502466,0.021431
 58,0.20215951,-0.02835548,-0.01599377,-0.01076754,-0.00720682,0.029611
 76,-0.01921388,0.02835548,0.01599377,-0.01076754,0.00720682,-0.0296117
 6,-0.01921388,0.,0.,0.06966385,0.00353623,0.01063657,0.00350081,-0.033
 13436,-0.00946023,0.01893621,0.00353623,0.01063657,-0.00350081,-0.0331
 3436,-0.00946023,-0.01893621,-0.02505706,-0.00232300,0.,0.08930503,0.0
 1404998,-0.04763143,-0.02502466,-0.00864952,0.00875863,0.01306526,0.01
 404998,-0.04763143,0.02502466,-0.00864952,0.00875863,-0.01306526,-0.00
 232300,-0.00289774,0.,0.02143158,0.20215951,0.00720682,-0.02961176,-0.
 01921388,0.02835548,0.01599377,-0.01076754,-0.00720682,0.02961176,-0.0
 1921388,-0.02835548,-0.01599377,-0.01076754,0.,0.,-0.00709327,0.,0.,0.
 06966385,-0.01774183,0.01974751,-0.00844078,0.00073850,0.00112519,-0.0
 0052702,-0.01774183,0.01974751,0.00844078,0.00073850,0.00112519,0.0005
 2702,-0.00377367,-0.03253898,0.,-0.00127802,0.00262948,0.,0.03872004,0
 .01477468,-0.02444006,0.01555490,0.00187391,0.00330775,-0.00291145,0.0
 1477468,-0.02444006,-0.01555490,0.00187391,0.00330775,0.00291146,-0.02
 149023,-0.11165861,0.,0.00002896,-0.00985755,0.,-0.01498771,0.17142745
 ,-0.01132074,0.02506536,-0.01055436,0.00095538,0.00452717,-0.00159896,
 0.01132074,-0.02506536,-0.01055436,-0.00095538,-0.00452717,-0.00159896
 ,0.,0.,-0.00417695,0.,0.,0.00156921,0.,0.,0.02939453,0.00073850,0.0011
 2519,0.00052702,-0.01774183,0.01974751,0.00844078,0.00073850,0.0011251
 9,-0.00052702,-0.01774183,0.01974751,-0.00844078,-0.00127802,0.0026294
 8,0.,-0.00377367,-0.03253898,0.,0.00033831,0.00315180,0.,0.03872004,0.
 00187391,0.00330775,0.00291145,0.01477468,-0.02444006,-0.01555490,0.00
 187391,0.00330775,-0.00291146,0.01477468,-0.02444006,0.01555490,0.0000
 2896,-0.00985755,0.,-0.02149023,-0.11165861,0.,0.00315180,-0.00764666,
 0.,-0.01498771,0.17142745,-0.00095538,-0.00452717,-0.00159896,0.011320
 74,-0.02506536,-0.01055436,0.00095538,0.00452717,-0.00159896,-0.011320
 74,0.02506536,-0.01055436,0.,0.,0.00156921,0.,0.,-0.00417695,0.,0.,-0.
 00248014,0.,0.,0.02939453\\-0.01646280,-0.00281967,-0.01604722,0.01646
 280,0.00281967,-0.01604722,-0.01646280,-0.00281967,0.01604722,0.016462
 80,0.00281967,0.01604722,0.03726997,0.01809724,0.,-0.03726997,-0.01809
 724,0.,0.00828217,-0.04502241,0.,-0.00828217,0.04502241,0.\\\@


 BLESSED ARE THOSE WHO NOUGHT EXPECT,
 FOR THEY SHALL NOT BE DISAPPOINTED..  WALCOT - ODE TO PITT
 Job cpu time:  0 days  0 hours  6 minutes 30.1 seconds.
 File lengths (MBytes):  RWF=     70 Int=      0 D2E=      0 Chk=      3 Scr=      1
 Normal termination of Gaussian 09 at Tue Apr  3 13:43:07 2012.
 Initial command:
 /usr/local/chem/g09A2/l1.exe /temp0/tam/Gau-30341.inp -scrdir=/temp0/tam/
 Entering Link 1 = /usr/local/chem/g09A2/l1.exe PID=     30497.
  
 Copyright (c) 1988,1990,1992,1993,1995,1998,2003,2009, Gaussian, Inc.
                  All Rights Reserved.
  
 This is part of the Gaussian(R) 09 program.  It is based on
 the Gaussian(R) 03 system (copyright 2003, Gaussian, Inc.),
 the Gaussian(R) 98 system (copyright 1998, Gaussian, Inc.),
 the Gaussian(R) 94 system (copyright 1995, Gaussian, Inc.),
 the Gaussian 92(TM) system (copyright 1992, Gaussian, Inc.),
 the Gaussian 90(TM) system (copyright 1990, Gaussian, Inc.),
 the Gaussian 88(TM) system (copyright 1988, Gaussian, Inc.),
 the Gaussian 86(TM) system (copyright 1986, Carnegie Mellon
 University), and the Gaussian 82(TM) system (copyright 1983,
 Carnegie Mellon University). Gaussian is a federally registered
 trademark of Gaussian, Inc.
  
 This software contains proprietary and confidential information,
 including trade secrets, belonging to Gaussian, Inc.
  
 This software is provided under written license and may be
 used, copied, transmitted, or stored only in accord with that
 written license.
  
 The following legend is applicable only to US Government
 contracts under FAR:
  
                    RESTRICTED RIGHTS LEGEND
  
 Use, reproduction and disclosure by the US Government is
 subject to restrictions as set forth in subparagraphs (a)
 and (c) of the Commercial Computer Software - Restricted
 Rights clause in FAR 52.227-19.
  
 Gaussian, Inc.
 340 Quinnipiac St., Bldg. 40, Wallingford CT 06492
  
  
 ---------------------------------------------------------------
 Warning -- This program may not be used in any manner that
 competes with the business of Gaussian, Inc. or will provide
 assistance to any competitor of Gaussian, Inc.  The licensee
 of this program is prohibited from giving any competitor of
 Gaussian, Inc. access to this program.  By using this program,
 the user acknowledges that Gaussian, Inc. is engaged in the
 business of creating and licensing software in the field of
 computational chemistry and represents and warrants to the
 licensee that it is not a competitor of Gaussian, Inc. and that
 it will not use this program in any manner prohibited above.
 ---------------------------------------------------------------
  

 Cite this work as:
 Gaussian 09, Revision A.02,
 M. J. Frisch, G. W. Trucks, H. B. Schlegel, G. E. Scuseria, 
 M. A. Robb, J. R. Cheeseman, G. Scalmani, V. Barone, B. Mennucci, 
 G. A. Petersson, H. Nakatsuji, M. Caricato, X. Li, H. P. Hratchian, 
 A. F. Izmaylov, J. Bloino, G. Zheng, J. L. Sonnenberg, M. Hada, 
 M. Ehara, K. Toyota, R. Fukuda, J. Hasegawa, M. Ishida, T. Nakajima, 
 Y. Honda, O. Kitao, H. Nakai, T. Vreven, J. A. Montgomery, Jr., 
 J. E. Peralta, F. Ogliaro, M. Bearpark, J. J. Heyd, E. Brothers, 
 K. N. Kudin, V. N. Staroverov, R. Kobayashi, J. Normand, 
 K. Raghavachari, A. Rendell, J. C. Burant, S. S. Iyengar, J. Tomasi, 
 M. Cossi, N. Rega, J. M. Millam, M. Klene, J. E. Knox, J. B. Cross, 
 V. Bakken, C. Adamo, J. Jaramillo, R. Gomperts, R. E. Stratmann, 
 O. Yazyev, A. J. Austin, R. Cammi, C. Pomelli, J. W. Ochterski, 
 R. L. Martin, K. Morokuma, V. G. Zakrzewski, G. A. Voth, 
 P. Salvador, J. J. Dannenberg, S. Dapprich, A. D. Daniels, 
 O. Farkas, J. B. Foresman, J. V. Ortiz, J. Cioslowski, 
 and D. J. Fox, Gaussian, Inc., Wallingford CT, 2009.
 
 ******************************************
 Gaussian 09:  AM64L-G09RevA.02 11-Jun-2009
                 3-Apr-2012 
 ******************************************
 %NprocShared=8
 Will use up to    8 processors via shared memory.
 %mem=39150MB
 %chk=S8L-ne-d-01
 ----------------------------------------------------------------------
 # b3lyp/6-311+G(d) opt=(readfc,noeigentest) freq scfcyc=500 optcyc=500
  scf=xqc geom=allcheck guess=read
 ----------------------------------------------------------------------
 1/6=500,10=3,11=1,14=-1,18=20,19=15,26=3,29=7,38=1/1,3;
 2/9=110,12=2,40=1/2;
 3/5=4,6=6,7=11,11=2,14=-4,16=1,25=1,30=1,71=1,74=-5,116=-2/1,2,3;
 4/5=1/1;
 5/5=2,7=500,8=3,13=1,38=6/2,8;
 6/7=2,8=2,9=2,10=2,28=1/1;
 7//1,2,3,16;
 1/6=500,11=1,14=-1,18=20,19=15/3(2);
 2/9=110/2;
 99//99;
 2/9=110/2;
 3/5=4,6=6,7=11,11=2,14=-2,16=1,25=1,30=1,71=1,74=-5/1,2,3;
 4/5=5,16=3/1;
 5/5=2,7=500,8=3,13=1,38=5/2,8;
 7//1,2,3,16;
 1/6=500,11=1,14=-1,18=20,19=15/3(-5);
 2/9=110/2;
 6/7=2,8=2,9=2,10=2,19=2,28=1/1;
 99/9=1/99;
 --------------------------
 si8li-cation-doublet-adiab
 --------------------------
 No Z-matrix found on checkpoint file.
 Cartesian coordinates read from the checkpoint file:
 S8L-ne-d-01.chk
 Charge =  1 Multiplicity = 2
  Si                                                0.668443000000      1.255513000000      1.458498000000
  Si                                               -0.668443000000     -1.255513000000      1.458498000000
  Si                                                0.668443000000      1.255513000000     -1.458498000000
  Si                                               -0.668443000000     -1.255513000000     -1.458498000000
  Si                                               -1.286783000000      0.575029000000      0.000000000000
  Si                                                1.286783000000     -0.575029000000      0.000000000000
  Si                                               -0.668443000000      2.770287000000      0.000000000000
  Si                                                0.668443000000     -2.770287000000      0.000000000000
 Recover connectivity data from disk.

 GradGradGradGradGradGradGradGradGradGradGradGradGradGradGradGradGradGrad
 Berny optimization.
 Initialization pass.
 No redundant coordinates on chk file, so ReadFC converted to ReadCartesianFC.
 Cartesian force constants read from checkpoint file:
 S8L-ne-d-01.chk
                           ----------------------------
                           !    Initial Parameters    !
                           ! (Angstroms and Degrees)  !
 --------------------------                            --------------------------
 ! Name  Definition              Value          Derivative Info.                !
 --------------------------------------------------------------------------------
 ! R1    R(1,2)                  2.8447         D2E/DX2 =    0.0108             !
 ! R2    R(1,3)                  2.917          D2E/DX2 =    0.0178             !
 ! R3    R(1,5)                  2.5324         D2E/DX2 =    0.0253             !
 ! R4    R(1,6)                  2.4208         D2E/DX2 =    0.0355             !
 ! R5    R(1,7)                  2.4918         D2E/DX2 =    0.038              !
 ! R6    R(2,4)                  2.917          D2E/DX2 =    0.0178             !
 ! R7    R(2,5)                  2.4208         D2E/DX2 =    0.0355             !
 ! R8    R(2,6)                  2.5324         D2E/DX2 =    0.0253             !
 ! R9    R(2,8)                  2.4918         D2E/DX2 =    0.038              !
 ! R10   R(3,4)                  2.8447         D2E/DX2 =    0.0108             !
 ! R11   R(3,5)                  2.5324         D2E/DX2 =    0.0253             !
 ! R12   R(3,6)                  2.4208         D2E/DX2 =    0.0355             !
 ! R13   R(3,7)                  2.4918         D2E/DX2 =    0.038              !
 ! R14   R(4,5)                  2.4208         D2E/DX2 =    0.0355             !
 ! R15   R(4,6)                  2.5324         D2E/DX2 =    0.0253             !
 ! R16   R(4,8)                  2.4918         D2E/DX2 =    0.038              !
 ! R17   R(5,6)                  2.8188         D2E/DX2 =    0.0137             !
 ! R18   R(5,7)                  2.2807         D2E/DX2 =    0.0809             !
 ! R19   R(6,8)                  2.2807         D2E/DX2 =    0.0809             !
 ! A1    A(2,1,3)               90.0            D2E/DX2 =    0.0011             !
 ! A2    A(2,1,7)              106.5264         D2E/DX2 =    0.0051             !
 ! A3    A(6,1,7)              104.127          D2E/DX2 =    0.0038             !
 ! A4    A(1,2,4)               90.0            D2E/DX2 =    0.0011             !
 ! A5    A(1,2,8)              106.5264         D2E/DX2 =    0.0051             !
 ! A6    A(5,2,8)              104.127          D2E/DX2 =    0.0038             !
 ! A7    A(1,3,4)               90.0            D2E/DX2 =    0.0011             !
 ! A8    A(4,3,7)              106.5264         D2E/DX2 =    0.0051             !
 ! A9    A(6,3,7)              104.127          D2E/DX2 =    0.0038             !
 ! A10   A(2,4,3)               90.0            D2E/DX2 =    0.0011             !
 ! A11   A(3,4,8)              106.5264         D2E/DX2 =    0.0051             !
 ! A12   A(5,4,8)              104.127          D2E/DX2 =    0.0038             !
 ! A13   A(1,5,4)              110.6687         D2E/DX2 =    0.0024             !
 ! A14   A(2,5,3)              110.6687         D2E/DX2 =    0.0024             !
 ! A15   A(2,5,7)              131.1923         D2E/DX2 =    0.004              !
 ! A16   A(4,5,7)              131.1923         D2E/DX2 =    0.004              !
 ! A17   A(6,5,7)               98.3476         D2E/DX2 =    0.0041             !
 ! A18   A(1,6,4)              110.6687         D2E/DX2 =    0.0024             !
 ! A19   A(1,6,8)              131.1923         D2E/DX2 =    0.004              !
 ! A20   A(2,6,3)              110.6687         D2E/DX2 =    0.0024             !
 ! A21   A(3,6,8)              131.1923         D2E/DX2 =    0.004              !
 ! A22   A(5,6,8)               98.3476         D2E/DX2 =    0.0041             !
 ! D1    D(3,1,2,4)              0.0            D2E/DX2 =    0.0009             !
 ! D2    D(3,1,2,8)             52.3712         D2E/DX2 =    0.0025             !
 ! D3    D(7,1,2,4)             52.3712         D2E/DX2 =    0.0025             !
 ! D4    D(7,1,2,8)            104.7424         D2E/DX2 =    0.0042             !
 ! D5    D(2,1,3,4)              0.0            D2E/DX2 =    0.001              !
 ! D6    D(7,1,6,4)            -42.0143         D2E/DX2 =    0.0047             !
 ! D7    D(7,1,6,8)           -112.4721         D2E/DX2 =    0.0067             !
 ! D8    D(1,2,4,3)              0.0            D2E/DX2 =    0.001              !
 ! D9    D(8,2,5,3)            -42.0143         D2E/DX2 =    0.0047             !
 ! D10   D(8,2,5,7)           -112.4721         D2E/DX2 =    0.0067             !
 ! D11   D(1,3,4,2)              0.0            D2E/DX2 =    0.0009             !
 ! D12   D(1,3,4,8)            -52.3712         D2E/DX2 =    0.0025             !
 ! D13   D(7,3,4,2)            -52.3712         D2E/DX2 =    0.0025             !
 ! D14   D(7,3,4,8)           -104.7424         D2E/DX2 =    0.0042             !
 ! D15   D(7,3,6,2)             42.0143         D2E/DX2 =    0.0047             !
 ! D16   D(7,3,6,8)            112.4721         D2E/DX2 =    0.0067             !
 ! D17   D(8,4,5,1)             42.0143         D2E/DX2 =    0.0047             !
 ! D18   D(8,4,5,7)            112.4721         D2E/DX2 =    0.0067             !
 ! D19   D(7,5,6,8)            180.0            D2E/DX2 =    0.0035             !
 --------------------------------------------------------------------------------
 Trust Radius=3.00D-01 FncErr=1.00D-07 GrdErr=1.00D-06
 Number of steps in this run= 100 maximum allowed number of steps= 100.
 GradGradGradGradGradGradGradGradGradGradGradGradGradGradGradGradGradGrad

                          Input orientation:                          
 ---------------------------------------------------------------------
 Center     Atomic      Atomic             Coordinates (Angstroms)
 Number     Number       Type             X           Y           Z
 ---------------------------------------------------------------------
      1         14           0        0.668443    1.255513    1.458498
      2         14           0       -0.668443   -1.255513    1.458498
      3         14           0        0.668443    1.255513   -1.458498
      4         14           0       -0.668443   -1.255513   -1.458498
      5         14           0       -1.286783    0.575029    0.000000
      6         14           0        1.286783   -0.575029    0.000000
      7         14           0       -0.668443    2.770287    0.000000
      8         14           0        0.668443   -2.770287    0.000000
 ---------------------------------------------------------------------
                    Distance matrix (angstroms):
                    1          2          3          4          5
     1  Si   0.000000
     2  Si   2.844735   0.000000
     3  Si   2.916996   4.074479   0.000000
     4  Si   4.074479   2.916996   2.844735   0.000000
     5  Si   2.532426   2.420836   2.532426   2.420836   0.000000
     6  Si   2.420836   2.532426   2.420836   2.532426   2.818843
     7  Si   2.491791   4.281855   2.491791   4.281855   2.280680
     8  Si   4.281855   2.491791   4.281855   2.491791   3.874796
                    6          7          8
     6  Si   0.000000
     7  Si   3.874796   0.000000
     8  Si   2.280680   5.699581   0.000000
 Stoichiometry    Si8(1+,2)
 Framework group  C2H[SGH(Si4),X(Si4)]
 Deg. of freedom     6
 Full point group                 C2H     NOp   4
 Largest Abelian subgroup         C2H     NOp   4
 Largest concise Abelian subgroup C2H     NOp   4
                         Standard orientation:                         
 ---------------------------------------------------------------------
 Center     Atomic      Atomic             Coordinates (Angstroms)
 Number     Number       Type             X           Y           Z
 ---------------------------------------------------------------------
      1         14           0        0.668443    1.255513    1.458498
      2         14           0       -0.668443   -1.255513    1.458498
      3         14           0        0.668443    1.255513   -1.458498
      4         14           0       -0.668443   -1.255513   -1.458498
      5         14           0       -1.286783    0.575029    0.000000
      6         14           0        1.286783   -0.575029    0.000000
      7         14           0       -0.668443    2.770287    0.000000
      8         14           0        0.668443   -2.770287    0.000000
 ---------------------------------------------------------------------
 Rotational constants (GHZ):      1.2632700      0.6381268      0.5822202
 Standard basis: 6-311+G(d) (5D, 7F)
 There are    74 symmetry adapted basis functions of AG  symmetry.
 There are    46 symmetry adapted basis functions of BG  symmetry.
 There are    46 symmetry adapted basis functions of AU  symmetry.
 There are    74 symmetry adapted basis functions of BU  symmetry.
 Integral buffers will be    131072 words long.
 Raffenetti 2 integral format.
 Two-electron integral symmetry is turned on.
   240 basis functions,   400 primitive gaussians,   248 cartesian basis functions
    56 alpha electrons       55 beta electrons
       nuclear repulsion energy       993.0161748784 Hartrees.
 NAtoms=    8 NActive=    8 NUniq=    3 SFac= 3.00D+00 NAtFMM=   80 NAOKFM=F Big=F
 One-electron integrals computed using PRISM.
 NBasis=   240 RedAO= T  NBF=    74    46    46    74
 NBsUse=   240 1.00D-06 NBFU=    74    46    46    74
 Initial guess read from the checkpoint file:  S8L-ne-d-01.chk
 B after Tr=     0.000000    0.000000    0.000000
         Rot=    1.000000    0.000000    0.000000    0.000000 Ang=   0.00 deg.
 Initial guess orbital symmetries:
 Alpha Orbitals:
       Occupied  (BU) (AG) (AU) (BG) (AG) (BU) (AG) (BU) (BU) (AU)
                 (AG) (BG) (AG) (BU) (AG) (BU) (AG) (AU) (BU) (BG)
                 (AG) (BU) (AU) (BG) (AG) (BU) (AU) (AG) (BG) (BU)
                 (AU) (BG) (AG) (BU) (BG) (AU) (AG) (BU) (BU) (AG)
                 (AG) (BU) (AU) (BU) (AG) (BG) (AG) (BU) (BG) (AG)
                 (AG) (BU) (AU) (BU) (AG) (AU)
       Virtual   (BU) (AU) (BG) (AG) (BG) (BU) (BU) (AU) (AG) (BG)
                 (BU) (AG) (BG) (AU) (BU) (AG) (AG) (BG) (AU) (BU)
                 (AG) (AU) (BG) (BU) (BU) (AG) (AG) (BU) (AU) (BU)
                 (AU) (AG) (BG) (BU) (AG) (BG) (AG) (BG) (BU) (AU)
                 (AG) (BU) (BG) (AU) (BU) (AG) (BU) (AG) (BU) (AU)
                 (BU) (AG) (AG) (AG) (AG) (BU) (BG) (AU) (BG) (BG)
                 (BU) (AU) (BU) (AU) (AG) (BG) (BG) (AU) (BU) (AG)
                 (AG) (BU) (AG) (BG) (BU) (AU) (BU) (AG) (BU) (AG)
                 (AU) (BU) (BU) (AG) (AG) (AG) (BG) (BU) (AU) (BG)
                 (BU) (AG) (AU) (BG) (BU) (AG) (AU) (BG) (BG) (BU)
                 (AU) (AG) (AG) (BU) (AG) (BG) (BU) (AU) (BU) (AG)
                 (BU) (AG) (AG) (AG) (AG) (AG) (AG) (AG) (AG) (AG)
                 (AG) (AG) (AG) (AG) (AG) (AG) (AG) (AG) (AG) (AG)
                 (AG) (AG) (AG) (BG) (BG) (BG) (BG) (BG) (BG) (BG)
                 (BG) (BG) (BG) (BG) (BG) (BG) (BG) (BG) (AU) (AU)
                 (AU) (AU) (AU) (AU) (AU) (AU) (AU) (AU) (AU) (AU)
                 (AU) (AU) (AU) (BU) (BU) (BU) (BU) (BU) (BU) (BU)
                 (BU) (BU) (BU) (BU) (BU) (BU) (BU) (BU) (BU) (BU)
                 (BU) (BU) (BU) (BU)
 Beta  Orbitals:
       Occupied  (BU) (AG) (AU) (BG) (AG) (BU) (AG) (BU) (BU) (AU)
                 (AG) (BG) (AG) (BU) (AG) (BU) (AG) (BU) (AU) (BG)
                 (AG) (AU) (BU) (BG) (AG) (BU) (BG) (AG) (AU) (BU)
                 (AU) (BG) (AG) (BU) (AG) (BU) (BG) (AU) (BU) (AG)
                 (AG) (BU) (AU) (BU) (AG) (BG) (AG) (BU) (BG) (AG)
                 (AG) (BU) (AU) (AG) (BU)
       Virtual   (AU) (BU) (AU) (BG) (AG) (BG) (BU) (BU) (AU) (AG)
                 (BG) (BU) (AG) (BG) (AU) (BU) (AG) (AG) (BG) (BU)
                 (AU) (AG) (AU) (BG) (BU) (AG) (BU) (AG) (BU) (AU)
                 (BU) (AU) (AG) (BG) (BU) (AG) (BG) (AG) (BG) (BU)
                 (AU) (AG) (BU) (BG) (AU) (BU) (AG) (BU) (AG) (BU)
                 (AU) (BU) (AG) (AG) (AG) (AG) (BU) (BG) (AU) (BG)
                 (BU) (BG) (AU) (BU) (AU) (AG) (BG) (BG) (AU) (BU)
                 (AG) (AG) (BU) (AG) (BG) (BU) (AU) (BU) (AG) (BU)
                 (AG) (AU) (BU) (BU) (AG) (AG) (AG) (BG) (BU) (AU)
                 (BG) (BU) (AG) (AU) (BG) (BU) (AG) (BG) (AU) (BG)
                 (BU) (AU) (AG) (AG) (BU) (AG) (BG) (BU) (AU) (BU)
                 (AG) (BU) (AG) (AG) (AG) (AG) (AG) (AG) (AG) (AG)
                 (AG) (AG) (AG) (AG) (AG) (AG) (AG) (AG) (AG) (AG)
                 (AG) (AG) (AG) (AG) (BG) (BG) (BG) (BG) (BG) (BG)
                 (BG) (BG) (BG) (BG) (BG) (BG) (BG) (BG) (BG) (AU)
                 (AU) (AU) (AU) (AU) (AU) (AU) (AU) (AU) (AU) (AU)
                 (AU) (AU) (AU) (AU) (BU) (BU) (BU) (BU) (BU) (BU)
                 (BU) (BU) (BU) (BU) (BU) (BU) (BU) (BU) (BU) (BU)
                 (BU) (BU) (BU) (BU) (BU)
 Initial guess <Sx>= 0.0000 <Sy>= 0.0000 <Sz>= 0.5000 <S**2>= 0.7603 S= 0.5051
 Requested convergence on RMS density matrix=1.00D-08 within 128 cycles.
 Requested convergence on MAX density matrix=1.00D-06.
 Requested convergence on             energy=1.00D-06.
 No special actions if energy rises.
 Keep R1 and R2 ints in memory in canonical form, NReq=961350673.
 SCF Done:  E(UB3LYP) =  -2315.77315948     A.U. after   15 cycles
             Convg  =    0.5667D-08             -V/T =  2.0016
 <Sx>= 0.0000 <Sy>= 0.0000 <Sz>= 0.5000 <S**2>= 0.7616 S= 0.5058
 <L.S>= 0.000000000000E+00
 Annihilation of the first spin contaminant:
 S**2 before annihilation     0.7616,   after     0.7501
 QCSCF skips out because SCF is already converged.

 **********************************************************************

            Population analysis using the SCF density.

 **********************************************************************

 Orbital symmetries:
 Alpha Orbitals:
       Occupied  (AG) (BU) (AU) (BG) (AG) (BU) (AG) (BU) (AG) (BU)
                 (AU) (BG) (AG) (BU) (AG) (BU) (AG) (AU) (BU) (BG)
                 (AG) (BU) (AU) (BG) (AG) (AU) (BU) (BG) (AG) (BU)
                 (AU) (BG) (AG) (BU) (BG) (AU) (AG) (BU) (AG) (BU)
                 (AG) (BU) (AU) (BU) (AG) (BG) (AG) (BU) (BG) (AG)
                 (AG) (BU) (AU) (BU) (AG) (AU)
       Virtual   (BU) (AU) (BG) (AG) (BG) (BU) (AU) (BU) (AG) (BU)
                 (BG) (AG) (BG) (BU) (AU) (AG) (AG) (BG) (AU) (BU)
                 (AG) (BU) (AG) (BG) (AU) (AG) (BU) (BU) (AU) (BU)
                 (AU) (AG) (BU) (AG) (BG) (AG) (BG) (AG) (BG) (AG)
                 (BG) (BU) (BU) (AU) (AU) (BU) (BU) (AG) (BG) (AU)
                 (AG) (BU) (AG) (AG) (AU) (BG) (BU) (AU) (BU) (AG)
                 (BU) (BG) (BU) (AU) (AG) (AG) (BG) (BU) (AG) (BG)
                 (BU) (AU) (AG) (AU) (BU) (AG) (BG) (AU) (BG) (BU)
                 (AG) (AU) (BU) (BG) (AG) (BU) (AG) (AU) (AU) (BG)
                 (AG) (BU) (BU) (BU) (AG) (AG) (AU) (BG) (BU) (AG)
                 (BG) (BG) (BU) (AG) (AU) (BU) (BG) (AG) (BU) (AU)
                 (BG) (AG) (AU) (BU) (AG) (BG) (BU) (AU) (AG) (BU)
                 (AG) (BU) (AU) (BG) (BU) (AG) (AU) (AG) (BG) (AG)
                 (BU) (AU) (AU) (BG) (AG) (BU) (BG) (BU) (AG) (BU)
                 (AU) (AG) (BG) (BU) (BG) (BU) (BU) (AG) (AU) (AG)
                 (BU) (AG) (AG) (AG) (BU) (AU) (BU) (AG) (BG) (AU)
                 (BU) (BG) (AU) (BU) (AG) (BG) (AU) (AG) (BG) (BU)
                 (BG) (AU) (AG) (BU) (AG) (BU) (BG) (BU) (BU) (AG)
                 (AU) (AG) (BU) (AG)
 Beta  Orbitals:
       Occupied  (AG) (BU) (AU) (BG) (AG) (BU) (AG) (BU) (AG) (BU)
                 (AU) (BG) (AG) (BU) (AG) (BU) (AG) (BU) (AU) (BG)
                 (AG) (AU) (BU) (BG) (AG) (BU) (AU) (BG) (AG) (BU)
                 (AU) (BG) (AG) (BU) (BG) (AU) (AG) (BU) (AG) (BU)
                 (AG) (BU) (AU) (BU) (AG) (BG) (AG) (BU) (BG) (AG)
                 (AG) (BU) (AU) (AG) (BU)
       Virtual   (AU) (BU) (AU) (BG) (AG) (BU) (BG) (AU) (BU) (AG)
                 (BU) (BG) (AG) (BG) (BU) (AU) (AG) (AG) (BG) (BU)
                 (AU) (AG) (BU) (AG) (BG) (AU) (AG) (BU) (BU) (AU)
                 (BU) (AU) (AG) (BU) (AG) (BG) (AG) (BG) (AG) (BG)
                 (AG) (BG) (BU) (BU) (AU) (AU) (BU) (BU) (AG) (BG)
                 (AU) (AG) (BU) (AG) (AG) (AU) (BG) (BU) (AU) (BU)
                 (BU) (AG) (BG) (BU) (AU) (AG) (AG) (BG) (BU) (AG)
                 (BG) (BU) (AU) (AG) (AU) (BU) (AG) (BG) (AU) (BG)
                 (BU) (AG) (AU) (BU) (BG) (AG) (BU) (AG) (AU) (AU)
                 (BG) (AG) (BU) (BU) (BU) (AG) (AG) (AU) (BG) (BU)
                 (AG) (BG) (BU) (BG) (AG) (AU) (BU) (BG) (AG) (BU)
                 (AU) (AG) (BG) (BU) (AG) (AU) (BG) (BU) (AU) (AG)
                 (BU) (AG) (BU) (AU) (BG) (BU) (AG) (AU) (AG) (BG)
                 (AU) (AG) (BU) (BG) (AU) (AG) (BU) (BG) (BU) (AG)
                 (BU) (AU) (AG) (BG) (BU) (BG) (BU) (BU) (AG) (AU)
                 (AG) (BU) (AG) (AG) (AG) (BU) (AU) (BU) (AG) (BG)
                 (AU) (BU) (BG) (AU) (BU) (AG) (BG) (AU) (AG) (BG)
[...]
 Vib (V=0)    1  0.771958D+01          0.887593          2.043759
 Vib (V=0)    2  0.245464D+01          0.389988          0.897980
 Vib (V=0)    3  0.216014D+01          0.334483          0.770175
 Vib (V=0)    4  0.202301D+01          0.305998          0.704586
 Vib (V=0)    5  0.193062D+01          0.285697          0.657843
 Vib (V=0)    6  0.150216D+01          0.176716          0.406904
 Vib (V=0)    7  0.146114D+01          0.164692          0.379216
 Vib (V=0)    8  0.142046D+01          0.152428          0.350979
 Vib (V=0)    9  0.141737D+01          0.151483          0.348802
 Vib (V=0)   10  0.137764D+01          0.139135          0.320370
 Vib (V=0)   11  0.135942D+01          0.133353          0.307056
 Vib (V=0)   12  0.131402D+01          0.118603          0.273095
 Vib (V=0)   13  0.130858D+01          0.116799          0.268940
 Vib (V=0)   14  0.124332D+01          0.094583          0.217786
 Vib (V=0)   15  0.121951D+01          0.086185          0.198447
 Vib (V=0)   16  0.120461D+01          0.080848          0.186159
 Vib (V=0)   17  0.112609D+01          0.051574          0.118754
 Vib (V=0)   18  0.111349D+01          0.046684          0.107495
 Electronic      0.200000D+01          0.301030          0.693147
 Translational   0.131610D+09          8.119290         18.695357
 Rotational      0.633036D+06          5.801428         13.358282
 ***** Axes restored to original set *****
 -------------------------------------------------------------------
 Center     Atomic                   Forces (Hartrees/Bohr)
 Number     Number              X              Y              Z
 -------------------------------------------------------------------
      1       14           0.000003692   -0.000006805   -0.000000717
      2       14          -0.000003692    0.000006805   -0.000000717
      3       14           0.000003707   -0.000004960    0.000000580
      4       14          -0.000003707    0.000004960    0.000000580
      5       14           0.000001725    0.000004033    0.000000353
      6       14          -0.000001725   -0.000004033    0.000000353
      7       14           0.000009419    0.000002508   -0.000000216
      8       14          -0.000009419   -0.000002508   -0.000000216
 -------------------------------------------------------------------
 Cartesian Forces:  Max     0.000009419 RMS     0.000004219

 GradGradGradGradGradGradGradGradGradGradGradGradGradGradGradGradGradGrad
 Berny optimization.
 Internal  Forces:  Max     0.000003081 RMS     0.000000612
 Search for a local minimum.
 Step number   1 out of a maximum of    2
 All quantities printed in internal units (Hartrees-Bohrs-Radians)
 Second derivative matrix not updated -- analytic derivatives used.
     Eigenvalues ---    0.00041   0.00515   0.00778   0.01365   0.01570
     Eigenvalues ---    0.02347   0.02349   0.02450   0.02516   0.03002
     Eigenvalues ---    0.03486   0.03567   0.04046   0.04079   0.04743
     Eigenvalues ---    0.05885   0.07123   0.078801000.000001000.00000
     Eigenvalues --- 1000.000001000.000001000.000001000.000001000.00000
     Eigenvalues --- 1000.000001000.000001000.000001000.000001000.00000
     Eigenvalues --- 1000.000001000.000001000.000001000.000001000.00000
     Eigenvalues --- 1000.000001000.000001000.000001000.000001000.00000
     Eigenvalues --- 1000.000001000.000001000.000001000.000001000.00000
     Eigenvalues --- 1000.000001000.000001000.000001000.000001000.00000
     Eigenvalues --- 1000.000001000.000001000.000001000.000001000.00000
     Eigenvalues --- 1000.000001000.000001000.000001000.000001000.00000
 Angle between quadratic step and forces=  65.33 degrees.
 Linear search not attempted -- first point.
 Iteration  1 RMS(Cart)=  0.00012897 RMS(Int)=  0.00000002
 Iteration  2 RMS(Cart)=  0.00000001 RMS(Int)=  0.00000001
 ClnCor:  largest displacement from symmetrization is 1.30D-11 for atom     4.
 Variable       Old X    -DE/DX   Delta X   Delta X   Delta X     New X
                                 (Linear)    (Quad)   (Total)
    R1        5.28925   0.00000   0.00000  -0.00104  -0.00104   5.28821
    R2        5.29601   0.00000   0.00000   0.00002   0.00002   5.29603
    R3        4.81980   0.00000   0.00000  -0.00001  -0.00001   4.81978
    R4        4.54736   0.00000   0.00000   0.00010   0.00010   4.54746
    R5        4.70843   0.00000   0.00000   0.00006   0.00006   4.70849
    R6        5.29601   0.00000   0.00000   0.00002   0.00002   5.29603
    R7        4.54736   0.00000   0.00000   0.00010   0.00010   4.54746
    R8        4.81980   0.00000   0.00000  -0.00001  -0.00001   4.81978
    R9        4.70843   0.00000   0.00000   0.00006   0.00006   4.70849
   R10        5.28786   0.00000   0.00000   0.00037   0.00037   5.28822
   R11        4.81982   0.00000   0.00000  -0.00004  -0.00004   4.81978
   R12        4.54751   0.00000   0.00000  -0.00005  -0.00005   4.54746
   R13        4.70849   0.00000   0.00000   0.00000   0.00000   4.70849
   R14        4.54751   0.00000   0.00000  -0.00005  -0.00005   4.54746
   R15        4.81982   0.00000   0.00000  -0.00004  -0.00004   4.81978
   R16        4.70849   0.00000   0.00000   0.00000   0.00000   4.70849
   R17        5.63941   0.00000   0.00000   0.00029   0.00029   5.63970
   R18        4.45185   0.00000   0.00000  -0.00004  -0.00004   4.45181
   R19        4.45185   0.00000   0.00000  -0.00004  -0.00004   4.45181
    A1        1.57067   0.00000   0.00000   0.00013   0.00013   1.57080
    A2        1.89419   0.00000   0.00000   0.00012   0.00012   1.89431
    A3        1.88820   0.00000   0.00000  -0.00001  -0.00001   1.88819
    A4        1.57067   0.00000   0.00000   0.00013   0.00013   1.57080
    A5        1.89419   0.00000   0.00000   0.00012   0.00012   1.89431
    A6        1.88820   0.00000   0.00000  -0.00001  -0.00001   1.88819
    A7        1.57093   0.00000   0.00000  -0.00013  -0.00013   1.57080
    A8        1.89435   0.00000   0.00000  -0.00004  -0.00004   1.89431
    A9        1.88813   0.00000   0.00000   0.00006   0.00006   1.88819
   A10        1.57093   0.00000   0.00000  -0.00013  -0.00013   1.57080
   A11        1.89435   0.00000   0.00000  -0.00004  -0.00004   1.89431
   A12        1.88813   0.00000   0.00000   0.00006   0.00006   1.88819
   A13        1.85060   0.00000   0.00000  -0.00006  -0.00006   1.85054
   A14        1.85064   0.00000   0.00000  -0.00010  -0.00010   1.85054
   A15        2.25135   0.00000   0.00000  -0.00026  -0.00026   2.25109
   A16        2.25095   0.00000   0.00000   0.00014   0.00014   2.25109
   A17        1.66235   0.00000   0.00000  -0.00003  -0.00003   1.66232
   A18        1.85064   0.00000   0.00000  -0.00010  -0.00010   1.85054
   A19        2.25135   0.00000   0.00000  -0.00026  -0.00026   2.25109
   A20        1.85060   0.00000   0.00000  -0.00006  -0.00006   1.85054
   A21        2.25095   0.00000   0.00000   0.00014   0.00014   2.25109
   A22        1.66235   0.00000   0.00000  -0.00003  -0.00003   1.66232
    D1        0.00002   0.00000   0.00000  -0.00002  -0.00002   0.00000
    D2        0.93581   0.00000   0.00000   0.00000   0.00000   0.93582
    D3        0.93581   0.00000   0.00000   0.00000   0.00000   0.93582
    D4        1.87161   0.00000   0.00000   0.00002   0.00002   1.87163
    D5       -0.00002   0.00000   0.00000   0.00002   0.00002   0.00000
    D6       -0.77873   0.00000   0.00000  -0.00027  -0.00027  -0.77900
    D7       -1.91752   0.00000   0.00000  -0.00023  -0.00023  -1.91775
    D8       -0.00002   0.00000   0.00000   0.00002   0.00002   0.00000
    D9       -0.77873   0.00000   0.00000  -0.00027  -0.00027  -0.77900
   D10       -1.91752   0.00000   0.00000  -0.00023  -0.00023  -1.91775
   D11        0.00002   0.00000   0.00000  -0.00002  -0.00002   0.00000
   D12       -0.93583   0.00000   0.00000   0.00002   0.00002  -0.93582
   D13       -0.93583   0.00000   0.00000   0.00002   0.00002  -0.93582
   D14       -1.87168   0.00000   0.00000   0.00005   0.00005  -1.87163
   D15        0.77921   0.00000   0.00000  -0.00022  -0.00022   0.77899
   D16        1.91799   0.00000   0.00000  -0.00024  -0.00024   1.91775
   D17        0.77921   0.00000   0.00000  -0.00022  -0.00022   0.77899
   D18        1.91799   0.00000   0.00000  -0.00024  -0.00024   1.91775
   D19       -3.14135   0.00000   0.00000  -0.00025  -0.00025   3.14159
         Item               Value     Threshold  Converged?
 Maximum Force            0.000003     0.000450     YES
 RMS     Force            0.000001     0.000300     YES
 Maximum Displacement     0.000440     0.001800     YES
 RMS     Displacement     0.000129     0.001200     YES
 Predicted change in Energy=-1.459677D-09
 Optimization completed.
    -- Stationary point found.
                           ----------------------------
                           !   Optimized Parameters   !
                           ! (Angstroms and Degrees)  !
 --------------------------                            --------------------------
 ! Name  Definition              Value          Derivative Info.                !
 --------------------------------------------------------------------------------
 ! R1    R(1,2)                  2.7989         -DE/DX =    0.0                 !
 ! R2    R(1,3)                  2.8025         -DE/DX =    0.0                 !
 ! R3    R(1,5)                  2.5505         -DE/DX =    0.0                 !
 ! R4    R(1,6)                  2.4064         -DE/DX =    0.0                 !
 ! R5    R(1,7)                  2.4916         -DE/DX =    0.0                 !
 ! R6    R(2,4)                  2.8025         -DE/DX =    0.0                 !
 ! R7    R(2,5)                  2.4064         -DE/DX =    0.0                 !
 ! R8    R(2,6)                  2.5505         -DE/DX =    0.0                 !
 ! R9    R(2,8)                  2.4916         -DE/DX =    0.0                 !
 ! R10   R(3,4)                  2.7982         -DE/DX =    0.0                 !
 ! R11   R(3,5)                  2.5505         -DE/DX =    0.0                 !
 ! R12   R(3,6)                  2.4064         -DE/DX =    0.0                 !
 ! R13   R(3,7)                  2.4916         -DE/DX =    0.0                 !
 ! R14   R(4,5)                  2.4064         -DE/DX =    0.0                 !
 ! R15   R(4,6)                  2.5505         -DE/DX =    0.0                 !
 ! R16   R(4,8)                  2.4916         -DE/DX =    0.0                 !
 ! R17   R(5,6)                  2.9842         -DE/DX =    0.0                 !
 ! R18   R(5,7)                  2.3558         -DE/DX =    0.0                 !
 ! R19   R(6,8)                  2.3558         -DE/DX =    0.0                 !
 ! A1    A(2,1,3)               89.9925         -DE/DX =    0.0                 !
 ! A2    A(2,1,7)              108.529          -DE/DX =    0.0                 !
 ! A3    A(6,1,7)              108.1857         -DE/DX =    0.0                 !
 ! A4    A(1,2,4)               89.9925         -DE/DX =    0.0                 !
 ! A5    A(1,2,8)              108.529          -DE/DX =    0.0                 !
 ! A6    A(5,2,8)              108.1857         -DE/DX =    0.0                 !
 ! A7    A(1,3,4)               90.0075         -DE/DX =    0.0                 !
 ! A8    A(4,3,7)              108.5384         -DE/DX =    0.0                 !
 ! A9    A(6,3,7)              108.182          -DE/DX =    0.0                 !
 ! A10   A(2,4,3)               90.0075         -DE/DX =    0.0                 !
 ! A11   A(3,4,8)              108.5384         -DE/DX =    0.0                 !
 ! A12   A(5,4,8)              108.182          -DE/DX =    0.0                 !
 ! A13   A(1,5,4)              106.0317         -DE/DX =    0.0                 !
 ! A14   A(2,5,3)              106.0337         -DE/DX =    0.0                 !
 ! A15   A(2,5,7)              128.9929         -DE/DX =    0.0                 !
 ! A16   A(4,5,7)              128.97           -DE/DX =    0.0                 !
 ! A17   A(6,5,7)               95.2454         -DE/DX =    0.0                 !
 ! A18   A(1,6,4)              106.0337         -DE/DX =    0.0                 !
 ! A19   A(1,6,8)              128.9929         -DE/DX =    0.0                 !
 ! A20   A(2,6,3)              106.0317         -DE/DX =    0.0                 !
 ! A21   A(3,6,8)              128.97           -DE/DX =    0.0                 !
 ! A22   A(5,6,8)               95.2454         -DE/DX =    0.0                 !
 ! D1    D(3,1,2,4)              0.0009         -DE/DX =    0.0                 !
 ! D2    D(3,1,2,8)             53.6182         -DE/DX =    0.0                 !
 ! D3    D(7,1,2,4)             53.6182         -DE/DX =    0.0                 !
 ! D4    D(7,1,2,8)            107.2356         -DE/DX =    0.0                 !
 ! D5    D(2,1,3,4)             -0.0009         -DE/DX =    0.0                 !
 ! D6    D(7,1,6,4)            -44.6177         -DE/DX =    0.0                 !
 ! D7    D(7,1,6,8)           -109.8661         -DE/DX =    0.0                 !
 ! D8    D(1,2,4,3)             -0.0009         -DE/DX =    0.0                 !
 ! D9    D(8,2,5,3)            -44.6177         -DE/DX =    0.0                 !
 ! D10   D(8,2,5,7)           -109.8661         -DE/DX =    0.0                 !
 ! D11   D(1,3,4,2)              0.0009         -DE/DX =    0.0                 !
 ! D12   D(1,3,4,8)            -53.6192         -DE/DX =    0.0                 !
 ! D13   D(7,3,4,2)            -53.6192         -DE/DX =    0.0                 !
 ! D14   D(7,3,4,8)           -107.2393         -DE/DX =    0.0                 !
 ! D15   D(7,3,6,2)             44.6454         -DE/DX =    0.0                 !
 ! D16   D(7,3,6,8)            109.8927         -DE/DX =    0.0                 !
 ! D17   D(8,4,5,1)             44.6454         -DE/DX =    0.0                 !
 ! D18   D(8,4,5,7)            109.8927         -DE/DX =    0.0                 !
 ! D19   D(7,5,6,8)            180.0139         -DE/DX =    0.0                 !
 --------------------------------------------------------------------------------
 GradGradGradGradGradGradGradGradGradGradGradGradGradGradGradGradGradGrad

 1\1\GINC-NODE63\Freq\UB3LYP\6-311+G(d)\Si8(1+,2)\TAM\03-Apr-2012\0\\#N
  Geom=AllCheck Guess=TCheck SCRF=Check GenChk UB3LYP/6-311+G(d) Freq\\
 si8li-cation-doublet-adiab\\1,2\Si,0.6528189442,1.2378835634,1.4012225
 219\Si,-0.6528189447,-1.2378835634,1.4012225217\Si,0.652628483,1.23756
 82074,-1.4013052452\Si,-0.6526284825,-1.2375682075,-1.4013052454\Si,-1
 .3745461074,0.5805657876,0.0001840983\Si,1.3745461074,-0.5805657876,0.
 0001840988\Si,-0.6601672953,2.8254586366,-0.0001013755\Si,0.6601672953
 ,-2.8254586366,-0.0001013751\\Version=AM64L-G09RevA.02\State=2-A\HF=-2
 315.7781798\S2=0.761446\S2-1=0.\S2A=0.75011\RMSD=3.073e-09\RMSF=4.219e
 -06\ZeroPoint=0.0106111\Thermal=0.0223461\Dipole=0.,0.,0.0001743\Dipol
 eDeriv=0.0478367,0.0851977,0.0753665,0.1388776,0.0027658,0.2342207,0.1
 496376,0.146555,0.1811606,0.0478367,0.0851977,-0.0753665,0.1388776,0.0
 027658,-0.2342207,-0.1496376,-0.146555,0.1811606,0.0477251,0.0851792,-
 0.0752614,0.1388704,0.0026471,-0.2342133,-0.1496427,-0.1465577,0.18114
 17,0.0477251,0.0851792,0.0752614,0.1388704,0.0026471,0.2342133,0.14964
 27,0.1465577,0.1811418,0.1368661,-0.0514947,-0.0000322,-0.1769123,-0.2
 202222,-0.0000106,-0.0000521,0.0000106,-0.045954,0.1368661,-0.0514947,
 0.0000322,-0.1769123,-0.2202222,0.0000106,0.0000521,-0.0000106,-0.0459
 54,0.2675721,-0.1188821,-0.0000072,-0.1008356,0.7148093,-0.0000772,-0.
 0000122,-0.0000148,0.1836517,0.2675721,-0.1188821,0.0000072,-0.1008356
 ,0.7148094,0.0000772,0.0000122,0.0000148,0.1836517\Polar=178.0771329,-
 15.3193791,300.1935515,0.0000003,0.0000006,200.9434052\PG=C02 [X(Si8)]
 \NImag=0\\0.03783581,-0.01542000,0.06112724,0.01035652,0.01532946,0.05
 536726,-0.00688718,-0.00382074,-0.00554430,0.03783581,-0.00382074,-0.0
 1028736,-0.00547543,-0.01542000,0.06112724,0.00554430,0.00547543,0.009
 84339,-0.01035652,-0.01532946,0.05536726,0.00676698,-0.00429818,0.0011
 1247,-0.00039954,0.00187366,-0.00413262,0.03783055,-0.00429648,0.00814
 007,0.00328283,0.00187031,-0.00659190,-0.00177999,-0.01541069,0.061136
 12,-0.00111303,-0.00328519,-0.03203681,-0.00413276,-0.00177988,-0.0009
 2395,-0.01035228,-0.01532594,0.05537242,-0.00039954,0.00187366,0.00413
 262,0.00676698,-0.00429818,-0.00111247,-0.00688851,-0.00382468,0.00554
 779,0.03783055,0.00187031,-0.00659190,0.00177999,-0.00429648,0.0081400
 7,-0.00328283,-0.00382468,-0.01030944,0.00547029,-0.01541069,0.0611361
 2,0.00413276,0.00177988,-0.00092395,0.00111303,0.00328519,-0.03203681,
 -0.00554779,-0.00547029,0.00983702,0.01035228,0.01532594,0.05537242,-0
 .02381048,-0.00540372,-0.01132406,0.00039527,0.01259472,-0.00423343,-0
 .02381105,-0.00539568,0.01133113,0.00039558,0.01258941,0.00423619,0.06
 972843,-0.00205095,0.00898066,-0.00805022,0.01193948,-0.04094456,0.018
 24741,-0.00204607,0.00897974,0.00805153,0.01193172,-0.04091941,-0.0182
 4621,0.00404880,0.14003193,-0.01853464,-0.01119863,-0.00666067,-0.0050
 4025,0.02065827,-0.01695732,0.01854108,0.01119767,-0.00666506,0.005042
 30,-0.02065204,-0.01696020,-0.00000772,-0.00001086,0.05877197,0.000395
 27,0.01259472,0.00423343,-0.02381048,-0.00540372,0.01132406,0.00039558
 ,0.01258941,-0.00423619,-0.02381105,-0.00539568,-0.01133113,-0.0155092
 5,-0.00639414,-0.00000120,0.06972843,0.01193948,-0.04094456,-0.0182474
 1,-0.00205095,0.00898066,0.00805022,0.01193172,-0.04091941,0.01824621,
 -0.00204607,0.00897974,-0.00805153,-0.00639414,-0.00092631,0.00000128,
 0.00404880,0.14003193,0.00504025,-0.02065827,-0.01695732,0.01853464,0.
 01119863,-0.00666067,-0.00504230,0.02065204,-0.01696020,-0.01854108,-0
 .01119767,-0.00666506,0.00000120,-0.00000128,-0.00530431,0.00000772,0.
 00001086,0.05877197,-0.01520907,0.01326429,-0.00344105,0.00130820,0.00
 120996,-0.00047436,-0.01520490,0.01326321,0.00343366,0.00131089,0.0012
 0460,0.00047831,-0.00724927,-0.01966409,0.00000089,-0.00013922,0.00223
 525,0.00000046,0.03548716,0.00913512,-0.02096407,0.00924887,0.00264325
 ,0.00053992,-0.00213192,0.00913300,-0.02096938,-0.00924610,0.00264124,
 0.00053421,0.00213092,-0.01170075,-0.06673405,0.00000619,-0.00033865,-
 0.00846800,0.00000188,-0.01351268,0.12348571,-0.00431852,0.01648415,-0
 .00733761,0.00110765,0.00392684,-0.00129428,0.00431264,-0.01648298,-0.
 00732945,-0.00110880,-0.00392668,-0.00129397,-0.00000177,0.00000765,-0
 .00947084,0.00000153,-0.00000199,0.00324644,0.00000468,-0.00000841,0.0
 2580398,0.00130820,0.00120996,0.00047436,-0.01520907,0.01326429,0.0034
 4105,0.00131089,0.00120460,-0.00047831,-0.01520490,0.01326321,-0.00343
 366,-0.00013922,0.00223525,-0.00000046,-0.00724927,-0.01966409,-0.0000
 0089,-0.00030380,0.00199947,0.00000259,0.03548716,0.00264325,0.0005399
 2,0.00213192,0.00913512,-0.02096407,-0.00924887,0.00264124,0.00053421,
 -0.00213092,0.00913300,-0.02096938,0.00924610,-0.00033865,-0.00846800,
 -0.00000188,-0.01170075,-0.06673405,-0.00000619,0.00199947,-0.00742435
 ,0.00000142,-0.01351268,0.12348571,-0.00110765,-0.00392684,-0.00129428
 ,0.00431852,-0.01648415,-0.00733761,0.00110880,0.00392668,-0.00129397,
 -0.00431264,0.01648298,-0.00732945,-0.00000153,0.00000199,0.00324644,0
 .00000177,-0.00000765,-0.00947084,-0.00000259,-0.00000142,-0.00232426,
 -0.00000468,0.00000841,0.02580398\\-0.00000369,0.00000681,0.00000072,0
 .00000369,-0.00000681,0.00000072,-0.00000371,0.00000496,-0.00000058,0.
 00000371,-0.00000496,-0.00000058,-0.00000172,-0.00000403,-0.00000035,0
 .00000172,0.00000403,-0.00000035,-0.00000942,-0.00000251,0.00000022,0.
 00000942,0.00000251,0.00000022\\\@


 PATIENCE IS THE ABILITY TO IDLE YOUR MOTOR WHEN
 YOU FEEL LIKE STRIPPING YOUR GEARS.
 Job cpu time:  0 days  0 hours 22 minutes 39.3 seconds.
 File lengths (MBytes):  RWF=    138 Int=      0 D2E=      0 Chk=      6 Scr=      1
 Normal termination of Gaussian 09 at Tue Apr  3 14:08:28 2012.
