 Entering Gaussian System, Link 0=g03
 Initial command:
 /usr/local/chem/g03E01/l1.exe /temp0/tam/Gau-30685.inp -scrdir=/temp0/tam/
 Entering Link 1 = /usr/local/chem/g03E01/l1.exe PID=     30686.
  
 Copyright (c) 1988,1990,1992,1993,1995,1998,2003,2004,2007, Gaussian, Inc.
                  All Rights Reserved.
  
 This is the Gaussian(R) 03 program.  It is based on the
 the Gaussian(R) 98 system (copyright 1998, Gaussian, Inc.),
 the Gaussian(R) 94 system (copyright 1995, Gaussian, Inc.),
 the Gaussian 92(TM) system (copyright 1992, Gaussian, Inc.),
 the Gaussian 90(TM) system (copyright 1990, Gaussian, Inc.),
 the Gaussian 88(TM) system (copyright 1988, Gaussian, Inc.),
 the Gaussian 86(TM) system (copyright 1986, Carnegie Mellon
 University), and the Gaussian 82(TM) system (copyright 1983,
 Carnegie Mellon University). Gaussian is a federally registered
 trademark of Gaussian, Inc.
  
 This software contains proprietary and confidential information,
 including trade secrets, belonging to Gaussian, Inc.
  
 This software is provided under written license and may be
 used, copied, transmitted, or stored only in accord with that
 written license.
  
 The following legend is applicable only to US Government
 contracts under FAR:
  
                    RESTRICTED RIGHTS LEGEND
  
 Use, reproduction and disclosure by the US Government is
 subject to restrictions as set forth in subparagraphs (a)
 and (c) of the Commercial Computer Software - Restricted
 Rights clause in FAR 52.227-19.
  
 Gaussian, Inc.
 340 Quinnipiac St., Bldg. 40, Wallingford CT 06492
  
  
 ---------------------------------------------------------------
 Warning -- This program may not be used in any manner that
 competes with the business of Gaussian, Inc. or will provide
 assistance to any competitor of Gaussian, Inc.  The licensee
 of this program is prohibited from giving any competitor of
 Gaussian, Inc. access to this program.  By using this program,
 the user acknowledges that Gaussian, Inc. is engaged in the
 business of creating and licensing software in the field of
 computational chemistry and represents and warrants to the
 licensee that it is not a competitor of Gaussian, Inc. and that
 it will not use this program in any manner prohibited above.
 ---------------------------------------------------------------
  

 Cite this work as:
 Gaussian 03, Revision E.01,
 M. J. Frisch, G. W. Trucks, H. B. Schlegel, G. E. Scuseria, 
 M. A. Robb, J. R. Cheeseman, J. A. Montgomery, Jr., T. Vreven, 
 K. N. Kudin, J. C. Burant, J. M. Millam, S. S. Iyengar, J. Tomasi, 
 V. Barone, B. Mennucci, M. Cossi, G. Scalmani, N. Rega, 
 G. A. Petersson, H. Nakatsuji, M. Hada, M. Ehara, K. Toyota, 
 R. Fukuda, J. Hasegawa, M. Ishida, T. Nakajima, Y. Honda, O. Kitao, 
 H. Nakai, M. Klene, X. Li, J. E. Knox, H. P. Hratchian, J. B. Cross, 
 V. Bakken, C. Adamo, J. Jaramillo, R. Gomperts, R. E. Stratmann, 
 O. Yazyev, A. J. Austin, R. Cammi, C. Pomelli, J. W. Ochterski, 
 P. Y. Ayala, K. Morokuma, G. A. Voth, P. Salvador, J. J. Dannenberg, 
 V. G. Zakrzewski, S. Dapprich, A. D. Daniels, M. C. Strain, 
 O. Farkas, D. K. Malick, A. D. Rabuck, K. Raghavachari, 
 J. B. Foresman, J. V. Ortiz, Q. Cui, A. G. Baboul, S. Clifford, 
 J. Cioslowski, B. B. Stefanov, G. Liu, A. Liashenko, P. Piskorz, 
 I. Komaromi, R. L. Martin, D. J. Fox, T. Keith, M. A. Al-Laham, 
 C. Y. Peng, A. Nanayakkara, M. Challacombe, P. M. W. Gill, 
 B. Johnson, W. Chen, M. W. Wong, C. Gonzalez, and J. A. Pople, 
 Gaussian, Inc., Wallingford CT, 2004.
 
 ******************************************
 Gaussian 03:  AM64L-G03RevE.01 11-Sep-2007
                 4-May-2010 
 ******************************************
 %NprocShared=4
 Will use up to    4 processors via shared memory.
 %mem=3750MB
 %chk=S8-ne-s-02
 ----------------------------------------------------------------------
 # b3lyp/LANL2DZ opt=(calcall,noeigentest,maxcycle=500) scfcyc=500 scf=
 xqc
 ----------------------------------------------------------------------
 1/6=500,10=4,11=1,14=-1,18=20,26=3,38=1/1,3;
 2/9=110,17=6,18=5,40=1/2;
 3/5=6,6=3,11=2,16=1,25=1,30=1,74=-5/1,2,3;
 4//1;
 5/5=2,7=500,8=3,13=1,38=5/2,8;
 8/6=4,10=90,11=11/1;
 11/6=1,8=1,9=11,15=111,16=1/1,2,10;
 10/6=1/2;
 6/7=2,8=2,9=2,10=2,18=1,28=1/1;
 7/10=1,25=1/1,2,3,16;
 1/6=500,10=4,11=1,14=-1,18=20/3(3);
 2/9=110/2;
 7/8=1,9=1,25=1,44=-1/16;
 99//99;
 2/9=110/2;
 3/5=6,6=3,11=2,16=1,25=1,30=1,74=-5/1,2,3;
 4/5=5,16=3/1;
 5/5=2,7=500,8=3,13=1,38=5/2,8;
 8/6=4,10=90,11=11/1;
 11/6=1,8=1,9=11,15=111,16=1/1,2,10;
 10/6=1/2;
 7/10=1,25=1/1,2,3,16;
 1/6=500,10=4,11=1,14=-1,18=20/3(-8);
 2/9=110/2;
 6/7=2,8=2,9=2,10=2,18=1,19=2,28=1/1;
 7/8=1,9=1,25=1,44=-1/16;
 99//99;
 ------------------------
 si8-neu-singlet-isomer02
 ------------------------
 Symbolic Z-matrix:
 Charge =  0 Multiplicity = 1
 Si                   -0.80045  -1.18876   1.44926 
 Si                    0.80045   1.18876   1.44926 
 Si                   -0.80045  -1.18876  -1.44926 
 Si                    0.80045   1.18876  -1.44926 
 Si                    1.20812  -0.7091    0. 
 Si                   -1.20812   0.7091    0. 
 Si                    0.36777  -2.84551   0. 
 Si                   -0.36777   2.84551   0. 
 

 GradGradGradGradGradGradGradGradGradGradGradGradGradGradGradGradGradGrad
 Berny optimization.
 Initialization pass.
                           ----------------------------
                           !    Initial Parameters    !
                           ! (Angstroms and Degrees)  !
 --------------------------                            --------------------------
 ! Name  Definition              Value          Derivative Info.                !
 --------------------------------------------------------------------------------
 ! R1    R(1,2)                  2.8663         calculate D2E/DX2 analytically  !
 ! R2    R(1,3)                  2.8985         calculate D2E/DX2 analytically  !
 ! R3    R(1,5)                  2.5229         calculate D2E/DX2 analytically  !
 ! R4    R(1,6)                  2.4225         calculate D2E/DX2 analytically  !
 ! R5    R(1,7)                  2.492          calculate D2E/DX2 analytically  !
 ! R6    R(2,4)                  2.8985         calculate D2E/DX2 analytically  !
 ! R7    R(2,5)                  2.4225         calculate D2E/DX2 analytically  !
 ! R8    R(2,6)                  2.5229         calculate D2E/DX2 analytically  !
 ! R9    R(2,8)                  2.492          calculate D2E/DX2 analytically  !
 ! R10   R(3,4)                  2.8663         calculate D2E/DX2 analytically  !
 ! R11   R(3,5)                  2.5229         calculate D2E/DX2 analytically  !
 ! R12   R(3,6)                  2.4225         calculate D2E/DX2 analytically  !
 ! R13   R(3,7)                  2.492          calculate D2E/DX2 analytically  !
 ! R14   R(4,5)                  2.4225         calculate D2E/DX2 analytically  !
 ! R15   R(4,6)                  2.5229         calculate D2E/DX2 analytically  !
 ! R16   R(4,8)                  2.492          calculate D2E/DX2 analytically  !
 ! R17   R(5,6)                  2.8017         calculate D2E/DX2 analytically  !
 ! R18   R(5,7)                  2.2957         calculate D2E/DX2 analytically  !
 ! R19   R(6,8)                  2.2957         calculate D2E/DX2 analytically  !
 ! A1    A(2,1,3)               90.0            calculate D2E/DX2 analytically  !
 ! A2    A(2,1,7)              106.8358         calculate D2E/DX2 analytically  !
 ! A3    A(6,1,7)              104.585          calculate D2E/DX2 analytically  !
 ! A4    A(1,2,4)               90.0            calculate D2E/DX2 analytically  !
 ! A5    A(1,2,8)              106.8358         calculate D2E/DX2 analytically  !
 ! A6    A(5,2,8)              104.585          calculate D2E/DX2 analytically  !
 ! A7    A(1,3,4)               90.0            calculate D2E/DX2 analytically  !
 ! A8    A(4,3,7)              106.8358         calculate D2E/DX2 analytically  !
 ! A9    A(6,3,7)              104.585          calculate D2E/DX2 analytically  !
 ! A10   A(2,4,3)               90.0            calculate D2E/DX2 analytically  !
 ! A11   A(3,4,8)              106.8358         calculate D2E/DX2 analytically  !
 ! A12   A(5,4,8)              104.585          calculate D2E/DX2 analytically  !
 ! A13   A(1,5,4)              111.0168         calculate D2E/DX2 analytically  !
 ! A14   A(2,5,3)              111.0168         calculate D2E/DX2 analytically  !
 ! A15   A(2,5,7)              131.8715         calculate D2E/DX2 analytically  !
 ! A16   A(4,5,7)              131.8715         calculate D2E/DX2 analytically  !
 ! A17   A(6,5,7)               98.9386         calculate D2E/DX2 analytically  !
 ! A18   A(1,6,4)              111.0168         calculate D2E/DX2 analytically  !
 ! A19   A(1,6,8)              131.8715         calculate D2E/DX2 analytically  !
 ! A20   A(2,6,3)              111.0168         calculate D2E/DX2 analytically  !
 ! A21   A(3,6,8)              131.8715         calculate D2E/DX2 analytically  !
 ! A22   A(5,6,8)               98.9386         calculate D2E/DX2 analytically  !
 ! D1    D(3,1,2,4)              0.0            calculate D2E/DX2 analytically  !
 ! D2    D(3,1,2,8)             52.5827         calculate D2E/DX2 analytically  !
 ! D3    D(7,1,2,4)             52.5827         calculate D2E/DX2 analytically  !
 ! D4    D(7,1,2,8)            105.1653         calculate D2E/DX2 analytically  !
 ! D5    D(2,1,3,4)              0.0            calculate D2E/DX2 analytically  !
 ! D6    D(7,1,6,4)            -42.0118         calculate D2E/DX2 analytically  !
 ! D7    D(7,1,6,8)           -112.7785         calculate D2E/DX2 analytically  !
 ! D8    D(1,2,4,3)              0.0            calculate D2E/DX2 analytically  !
 ! D9    D(8,2,5,3)            -42.0118         calculate D2E/DX2 analytically  !
 ! D10   D(8,2,5,7)           -112.7785         calculate D2E/DX2 analytically  !
 ! D11   D(1,3,4,2)              0.0            calculate D2E/DX2 analytically  !
 ! D12   D(1,3,4,8)            -52.5827         calculate D2E/DX2 analytically  !
 ! D13   D(7,3,4,2)            -52.5827         calculate D2E/DX2 analytically  !
 ! D14   D(7,3,4,8)           -105.1653         calculate D2E/DX2 analytically  !
 ! D15   D(7,3,6,2)             42.0118         calculate D2E/DX2 analytically  !
 ! D16   D(7,3,6,8)            112.7785         calculate D2E/DX2 analytically  !
 ! D17   D(8,4,5,1)             42.0118         calculate D2E/DX2 analytically  !
 ! D18   D(8,4,5,7)            112.7785         calculate D2E/DX2 analytically  !
 ! D19   D(7,5,6,8)            180.0            calculate D2E/DX2 analytically  !
 --------------------------------------------------------------------------------
 Trust Radius=3.00D-01 FncErr=1.00D-07 GrdErr=1.00D-06
 Number of steps in this run= 100 maximum allowed number of steps= 100.
 GradGradGradGradGradGradGradGradGradGradGradGradGradGradGradGradGradGrad

                          Input orientation:                          
 ---------------------------------------------------------------------
 Center     Atomic     Atomic              Coordinates (Angstroms)
 Number     Number      Type              X           Y           Z
 ---------------------------------------------------------------------
    1         14             0       -0.800453   -1.188759    1.449263
    2         14             0        0.800453    1.188759    1.449263
    3         14             0       -0.800453   -1.188759   -1.449263
    4         14             0        0.800453    1.188759   -1.449263
    5         14             0        1.208119   -0.709101    0.000000
    6         14             0       -1.208119    0.709101    0.000000
    7         14             0        0.367772   -2.845505    0.000000
    8         14             0       -0.367772    2.845505    0.000000
 ---------------------------------------------------------------------
                    Distance matrix (angstroms):
                    1          2          3          4          5
     1  Si   0.000000
     2  Si   2.866268   0.000000
     3  Si   2.898526   4.076389   0.000000
     4  Si   4.076389   2.898526   2.866268   0.000000
     5  Si   2.522855   2.422484   2.522855   2.422484   0.000000
     6  Si   2.422484   2.522855   2.422484   2.522855   2.801696
     7  Si   2.491971   4.308464   2.491971   4.308464   2.295736
     8  Si   4.308464   2.491971   4.308464   2.491971   3.888272
                    6          7          8
     6  Si   0.000000
     7  Si   3.888272   0.000000
     8  Si   2.295736   5.738346   0.000000
 Stoichiometry    Si8
 Framework group  C2H[SGH(Si4),X(Si4)]
 Deg. of freedom     6
 Full point group                 C2H
 Largest Abelian subgroup         C2H     NOp   4
 Largest concise Abelian subgroup C2H     NOp   4
                         Standard orientation:                         
 ---------------------------------------------------------------------
 Center     Atomic     Atomic              Coordinates (Angstroms)
 Number     Number      Type              X           Y           Z
 ---------------------------------------------------------------------
    1         14             0        0.669119    1.267341    1.449263
    2         14             0       -0.669119   -1.267341    1.449263
    3         14             0        0.669119    1.267341   -1.449263
    4         14             0       -0.669119   -1.267341   -1.449263
    5         14             0       -1.276848    0.576224    0.000000
    6         14             0        1.276848   -0.576224    0.000000
    7         14             0       -0.669119    2.790060    0.000000
    8         14             0        0.669119   -2.790060    0.000000
 ---------------------------------------------------------------------
 Rotational constants (GHZ):      1.2762594      0.6315126      0.5779878
 Standard basis: LANL2DZ (5D, 7F)
 There are    20 symmetry adapted basis functions of AG  symmetry.
 There are    12 symmetry adapted basis functions of BG  symmetry.
 There are    12 symmetry adapted basis functions of AU  symmetry.
 There are    20 symmetry adapted basis functions of BU  symmetry.
 Integral buffers will be    131072 words long.
 Raffenetti 2 integral format.
 Two-electron integral symmetry is turned on.
    64 basis functions,    96 primitive gaussians,    64 cartesian basis functions
    16 alpha electrons       16 beta electrons
       nuclear repulsion energy        80.9887642724 Hartrees.
 NAtoms=    8 NActive=    8 NUniq=    3 SFac= 3.00D+00 NAtFMM=   80 NAOKFM=F Big=F
 One-electron integrals computed using PRISM.
   4 Symmetry operations used in ECPInt.
 ECPInt:  NShTT=     528 NPrTT=    1192 LenC2=     529 LenP2D=    1168.
 LDataN:  DoStor=F MaxTD1= 3 Len=   28
 LDataN:  DoStor=T MaxTD1= 3 Len=   28
 NBasis=    64 RedAO= T  NBF=    20    12    12    20
 NBsUse=    64 1.00D-06 NBFU=    20    12    12    20
 Harris functional with IExCor=  402 diagonalized for initial guess.
 ExpMin= 8.85D-02 ExpMax= 2.58D+00 ExpMxC= 2.58D+00 IAcc=2 IRadAn=         4 AccDes= 0.00D+00
 HarFok:  IExCor= 402 AccDes= 0.00D+00 IRadAn=         4 IDoV=1
 ScaDFX=  1.000000  1.000000  1.000000  1.000000
 Initial guess orbital symmetries:
       Occupied  (AG) (BU) (AU) (BU) (AG) (BG) (AG) (BU) (BG) (AG)
                 (AG) (BU) (AU) (AG) (BU) (AU)
       Virtual   (BU) (AU) (BG) (AG) (BG) (BU) (BU) (AU) (AG) (BG)
                 (BU) (AG) (BG) (AU) (BU) (AG) (BG) (AU) (BU) (BG)
                 (AG) (BU) (AG) (AG) (BU) (BU) (AG) (AU) (AU) (BU)
                 (BG) (BG) (AU) (BU) (AG) (BG) (AG) (AG) (BU) (AU)
                 (AG) (BU) (AU) (BU) (BG) (AG) (BU) (AG)
 The electronic state of the initial guess is 1-AG.
 Requested convergence on RMS density matrix=1.00D-08 within 128 cycles.
 Requested convergence on MAX density matrix=1.00D-06.
 Requested convergence on             energy=1.00D-06.
 No special actions if energy rises.
 Keep R1 integrals in memory in canonical form, NReq=     3944712.
 Integral accuracy reduced to 1.0D-05 until final iterations.
 Initial convergence to 1.0D-05 achieved.  Increase integral accuracy.
 SCF Done:  E(RB+HF-LYP) =  -30.8107702361     A.U. after   14 cycles
             Convg  =    0.2298D-08             -V/T =  3.5547
             S**2   =   0.0000
 QCSCF skips out because SCF is already converged.
 Range of M.O.s used for correlation:     1    64
 NBasis=    64 NAE=    16 NBE=    16 NFC=     0 NFV=     0
 NROrb=     64 NOA=    16 NOB=    16 NVA=    48 NVB=    48

 **** Warning!!: The smallest alpha delta epsilon is  0.90688093D-01

   4 Symmetry operations used in ECPInt.
 ECPInt:  NShTT=     528 NPrTT=    1192 LenC2=     529 LenP2D=    1168.
 LDataN:  DoStor=F MaxTD1= 4 Len=   56
 LDataN:  DoStor=T MaxTD1= 4 Len=   56
 Symmetrizing basis deriv contribution to polar:
 IMax=3 JMax=2 DiffMx= 0.00D+00
 G2DrvN: will do    9 centers at a time, making    1 passes doing MaxLOS=1.
 FoFDir/FoFCou used for L=0 through L=1.
 DoAtom=TTTTTTTT
          Differentiating once with respect to electric field.
                with respect to dipole field.
          Differentiating once with respect to nuclear coordinates.
          Store integrals in memory, NReq=     2966789.
          There are  12 degrees of freedom in the 1st order CPHF.
    12 vectors were produced by pass  0.
 AX will form  12 AO Fock derivatives at one time.
    12 vectors were produced by pass  1.
    12 vectors were produced by pass  2.
    12 vectors were produced by pass  3.
    12 vectors were produced by pass  4.
    12 vectors were produced by pass  5.
    12 vectors were produced by pass  6.
    10 vectors were produced by pass  7.
     3 vectors were produced by pass  8.
     2 vectors were produced by pass  9.
 Inv2:  IOpt= 1 Iter= 1 AM= 1.39D-15 Conv= 1.00D-12.
 Inverted reduced A of dimension   99 with in-core refinement.
 Isotropic polarizability for W=    0.000000      238.12 Bohr**3.
 End of Minotr Frequency-dependent properties file   721 does not exist.

 **********************************************************************

            Population analysis using the SCF density.

 **********************************************************************

 Orbital symmetries:
       Occupied  (AG) (BU) (AU) (BU) (AG) (BG) (AG) (BU) (BG) (AG)
                 (AG) (BU) (AU) (AG) (BU) (AU)
       Virtual   (BU) (AU) (BG) (AG) (BG) (BU) (BU) (AU) (AG) (BG)
                 (BU) (AG) (BG) (AU) (BU) (AG) (BG) (AU) (BU) (BG)
                 (AG) (BU) (AG) (AG) (BU) (BU) (AU) (AG) (AU) (BG)
                 (BU) (AU) (BG) (BU) (AG) (BG) (AG) (AG) (BU) (AU)
                 (AG) (BU) (AU) (BU) (BG) (AG) (BU) (AG)
 The electronic state is 1-AG.
 Alpha  occ. eigenvalues --   -0.75145  -0.64266  -0.54963  -0.53278  -0.50648
 Alpha  occ. eigenvalues --   -0.43334  -0.39641  -0.34548  -0.33083  -0.31191
 Alpha  occ. eigenvalues --   -0.30435  -0.28729  -0.28348  -0.24492  -0.23953
 Alpha  occ. eigenvalues --   -0.22431
 Alpha virt. eigenvalues --   -0.13363  -0.12527  -0.10245  -0.08353  -0.08033
 Alpha virt. eigenvalues --   -0.07148  -0.05929  -0.04663  -0.02041  -0.01907
 Alpha virt. eigenvalues --   -0.00424   0.00605   0.02805   0.04511   0.05478
 Alpha virt. eigenvalues --    0.07353   0.26221   0.27576   0.27692   0.27732
 Alpha virt. eigenvalues --    0.28596   0.28965   0.30440   0.31269   0.31810
 Alpha virt. eigenvalues --    0.32038   0.32224   0.32910   0.33775   0.35912
 Alpha virt. eigenvalues --    0.35958   0.36709   0.37489   0.37582   0.37599
 Alpha virt. eigenvalues --    0.39735   0.40411   0.40711   0.42760   0.43456
 Alpha virt. eigenvalues --    8.32492   9.56970  10.75091  11.14651  11.45860
 Alpha virt. eigenvalues --   11.63340  12.77069  13.86358
          Condensed to atoms (all electrons):
              1          2          3          4          5          6
     1  Si   4.030419   0.007150  -0.036898  -0.023955  -0.060842  -0.034138
     2  Si   0.007150   4.030419  -0.023955  -0.036898  -0.034138  -0.060842
     3  Si  -0.036898  -0.023955   4.030419   0.007150  -0.060842  -0.034138
     4  Si  -0.023955  -0.036898   0.007150   4.030419  -0.034138  -0.060842
     5  Si  -0.060842  -0.034138  -0.060842  -0.034138   4.535692  -0.133944
     6  Si  -0.034138  -0.060842  -0.034138  -0.060842  -0.133944   4.535692
     7  Si   0.092009  -0.009948   0.092009  -0.009948   0.028148  -0.065390
     8  Si  -0.009948   0.092009  -0.009948   0.092009  -0.065390   0.028148
              7          8
     1  Si   0.092009  -0.009948
     2  Si  -0.009948   0.092009
     3  Si   0.092009  -0.009948
     4  Si  -0.009948   0.092009
     5  Si   0.028148  -0.065390
     6  Si  -0.065390   0.028148
     7  Si   3.768410   0.002573
     8  Si   0.002573   3.768410
 Mulliken atomic charges:
              1
     1  Si   0.036204
     2  Si   0.036204
     3  Si   0.036204
     4  Si   0.036204
     5  Si  -0.174546
     6  Si  -0.174546
     7  Si   0.102137
     8  Si   0.102137
 Sum of Mulliken charges=   0.00000
 Atomic charges with hydrogens summed into heavy atoms:
              1
     1  Si   0.036204
     2  Si   0.036204
     3  Si   0.036204
     4  Si   0.036204
     5  Si  -0.174546
     6  Si  -0.174546
     7  Si   0.102137
     8  Si   0.102137
 Sum of Mulliken charges=   0.00000
 APT atomic charges:
              1
     1  Si   0.022449
     2  Si   0.022449
     3  Si   0.022449
     4  Si   0.022449
     5  Si  -0.199107
     6  Si  -0.199107
     7  Si   0.154209
     8  Si   0.154209
 Sum of APT charges=   0.00000
 APT Atomic charges with hydrogens summed into heavy atoms:
              1
     1  Si   0.022449
     2  Si   0.022449
     3  Si   0.022449
     4  Si   0.022449
     5  Si  -0.199107
     6  Si  -0.199107
     7  Si   0.154209
     8  Si   0.154209
 Sum of APT charges=   0.00000
 Electronic spatial extent (au):  <R**2>=   757.3530
 Charge=     0.0000 electrons
 Dipole moment (field-independent basis, Debye):
    X=     0.0000    Y=     0.0000    Z=     0.0000  Tot=     0.0000
 Quadrupole moment (field-independent basis, Debye-Ang):
   XX=   -99.9481   YY=  -103.7661   ZZ=  -103.9618
   XY=     1.6764   XZ=     0.0000   YZ=     0.0000
 Traceless Quadrupole moment (field-independent basis, Debye-Ang):
   XX=     2.6106   YY=    -1.2075   ZZ=    -1.4031
   XY=     1.6764   XZ=     0.0000   YZ=     0.0000
 Octapole moment (field-independent basis, Debye-Ang**2):
  XXX=     0.0000  YYY=     0.0000  ZZZ=     0.0000  XYY=     0.0000
  XXY=     0.0000  XXZ=     0.0000  XZZ=     0.0000  YZZ=     0.0000
  YYZ=     0.0000  XYZ=     0.0000
 Hexadecapole moment (field-independent basis, Debye-Ang**3):
 XXXX=  -635.4793 YYYY= -1950.5477 ZZZZ=  -872.8848 XXXY=    75.3531
 XXXZ=     0.0000 YYYX=   114.1173 YYYZ=     0.0000 ZZZX=     0.0000
 ZZZY=     0.0000 XXYY=  -422.4365 XXZZ=  -256.3053 YYZZ=  -452.4621
 XXYZ=     0.0000 YYXZ=     0.0000 ZZXY=    -5.6908
 N-N= 8.098876427239D+01 E-N=-2.176233288245D+02  KE= 1.206019292771D+01
 Symmetry AG   KE= 4.255408913061D+00
 Symmetry BG   KE= 1.598053396949D+00
 Symmetry AU   KE= 2.399026063323D+00
 Symmetry BU   KE= 3.807704554380D+00
  Exact polarizability: 183.473 -13.209 315.959   0.000   0.000 214.922
 Approx polarizability: 548.752 -24.7881063.670   0.000   0.000 703.079
   4 Symmetry operations used in ECPInt.
 ECPInt:  NShTT=     528 NPrTT=    1192 LenC2=     529 LenP2D=    1192.
 LDataN:  DoStor=F MaxTD1= 5 Len=  102
 LDataN:  DoStor=T MaxTD1= 5 Len=  102
 ***** Axes restored to original set *****
 -------------------------------------------------------------------
 Center     Atomic                   Forces (Hartrees/Bohr)
 Number     Number              X              Y              Z
 -------------------------------------------------------------------
    1         14          -0.016809098   -0.007208767    0.027719731
    2         14           0.016809098    0.007208767    0.027719731
    3         14          -0.016809098   -0.007208767   -0.027719731
    4         14           0.016809098    0.007208767   -0.027719731
    5         14           0.032581333   -0.003400645    0.000000000
    6         14          -0.032581333    0.003400645    0.000000000
    7         14           0.005537161   -0.017198975    0.000000000
    8         14          -0.005537161    0.017198975    0.000000000
 -------------------------------------------------------------------
 Cartesian Forces:  Max     0.032581333 RMS     0.017333406

 GradGradGradGradGradGradGradGradGradGradGradGradGradGradGradGradGradGrad
 Berny optimization.
 Internal  Forces:  Max     0.012141919 RMS     0.005152368
 Search for a local minimum.
 Step number   1 out of a maximum of 100
 All quantities printed in internal units (Hartrees-Bohrs-Radians)
 Second derivative matrix not updated -- analytic derivatives used.
     Eigenvalues ---   -0.00022   0.00289   0.01515   0.01579   0.02594
     Eigenvalues ---    0.02603   0.02773   0.03094   0.03260   0.03446
     Eigenvalues ---    0.03758   0.04120   0.04135   0.04535   0.05354
     Eigenvalues ---    0.06378   0.08723   0.087441000.000001000.00000
     Eigenvalues --- 1000.000001000.000001000.000001000.000001000.00000
     Eigenvalues --- 1000.000001000.000001000.000001000.000001000.00000
     Eigenvalues --- 1000.000001000.000001000.000001000.000001000.00000
     Eigenvalues --- 1000.000001000.000001000.000001000.000001000.00000
     Eigenvalues --- 1000.000001000.000001000.000001000.000001000.00000
     Eigenvalues --- 1000.000001000.000001000.000001000.000001000.00000
     Eigenvalues --- 1000.000001000.000001000.000001000.000001000.00000
     Eigenvalues --- 1000.000001000.000001000.000001000.000001000.00000
 RFO step:  Lambda=-2.56498570D-02.
 Linear search not attempted -- first point.
 Maximum step size (   0.300) exceeded in Quadratic search.
    -- Step size scaled by   0.464
 Iteration  1 RMS(Cart)=  0.01829149 RMS(Int)=  0.00006868
 Iteration  2 RMS(Cart)=  0.00004508 RMS(Int)=  0.00004905
 Iteration  3 RMS(Cart)=  0.00000000 RMS(Int)=  0.00004905
 Variable       Old X    -DE/DX   Delta X   Delta X   Delta X     New X
                                 (Linear)    (Quad)   (Total)
    R1        5.41646   0.00764   0.00000   0.06254   0.06257   5.47903
    R2        5.47742   0.01214   0.00000   0.09438   0.09439   5.57181
    R3        4.76750   0.01133   0.00000   0.08804   0.08808   4.85559
    R4        4.57783   0.00594   0.00000   0.04826   0.04821   4.62604
    R5        4.70914   0.00884   0.00000   0.05919   0.05920   4.76834
    R6        5.47742   0.01214   0.00000   0.09438   0.09439   5.57181
    R7        4.57783   0.00594   0.00000   0.04826   0.04821   4.62604
    R8        4.76750   0.01133   0.00000   0.08804   0.08808   4.85559
    R9        4.70914   0.00884   0.00000   0.05919   0.05920   4.76834
   R10        5.41646   0.00764   0.00000   0.06254   0.06257   5.47903
   R11        4.76750   0.01133   0.00000   0.08804   0.08808   4.85559
   R12        4.57783   0.00594   0.00000   0.04826   0.04821   4.62604
   R13        4.70914   0.00884   0.00000   0.05919   0.05920   4.76834
   R14        4.57783   0.00594   0.00000   0.04826   0.04821   4.62604
   R15        4.76750   0.01133   0.00000   0.08804   0.08808   4.85559
   R16        4.70914   0.00884   0.00000   0.05919   0.05920   4.76834
   R17        5.29444   0.01031   0.00000   0.08039   0.08042   5.37486
   R18        4.33831   0.00678   0.00000   0.03237   0.03229   4.37060
   R19        4.33831   0.00678   0.00000   0.03237   0.03229   4.37060
    A1        1.57080   0.00000   0.00000   0.00000   0.00000   1.57080
    A2        1.86464  -0.00107   0.00000  -0.01198  -0.01187   1.85277
    A3        1.82535  -0.00092   0.00000  -0.00952  -0.00944   1.81591
    A4        1.57080   0.00000   0.00000   0.00000   0.00000   1.57080
    A5        1.86464  -0.00107   0.00000  -0.01198  -0.01187   1.85277
    A6        1.82535  -0.00092   0.00000  -0.00952  -0.00944   1.81591
    A7        1.57080   0.00000   0.00000   0.00000   0.00000   1.57080
    A8        1.86464  -0.00107   0.00000  -0.01198  -0.01187   1.85277
    A9        1.82535  -0.00092   0.00000  -0.00952  -0.00944   1.81591
   A10        1.57080   0.00000   0.00000   0.00000   0.00000   1.57080
   A11        1.86464  -0.00107   0.00000  -0.01198  -0.01187   1.85277
   A12        1.82535  -0.00092   0.00000  -0.00952  -0.00944   1.81591
   A13        1.93761  -0.00011   0.00000  -0.00059  -0.00057   1.93704
   A14        1.93761  -0.00011   0.00000  -0.00059  -0.00057   1.93704
   A15        2.30159  -0.00090   0.00000  -0.00655  -0.00651   2.29508
   A16        2.30159  -0.00090   0.00000  -0.00655  -0.00651   2.29508
   A17        1.72680  -0.00131   0.00000  -0.00971  -0.00965   1.71716
   A18        1.93761  -0.00011   0.00000  -0.00059  -0.00057   1.93704
   A19        2.30159  -0.00090   0.00000  -0.00655  -0.00651   2.29508
   A20        1.93761  -0.00011   0.00000  -0.00059  -0.00057   1.93704
   A21        2.30159  -0.00090   0.00000  -0.00655  -0.00651   2.29508
   A22        1.72680  -0.00131   0.00000  -0.00971  -0.00965   1.71716
    D1        0.00000   0.00000   0.00000   0.00000   0.00000   0.00000
    D2        0.91774  -0.00001   0.00000  -0.00079  -0.00083   0.91691
    D3        0.91774  -0.00001   0.00000  -0.00079  -0.00083   0.91691
    D4        1.83548  -0.00002   0.00000  -0.00159  -0.00165   1.83383
    D5        0.00000   0.00000   0.00000   0.00000   0.00000   0.00000
    D6       -0.73324  -0.00009   0.00000   0.00259   0.00257  -0.73068
    D7       -1.96836   0.00035   0.00000   0.00592   0.00590  -1.96246
    D8        0.00000   0.00000   0.00000   0.00000   0.00000   0.00000
    D9       -0.73324  -0.00009   0.00000   0.00259   0.00257  -0.73068
   D10       -1.96836   0.00035   0.00000   0.00592   0.00590  -1.96246
   D11        0.00000   0.00000   0.00000   0.00000   0.00000   0.00000
   D12       -0.91774   0.00001   0.00000   0.00079   0.00083  -0.91691
   D13       -0.91774   0.00001   0.00000   0.00079   0.00083  -0.91691
   D14       -1.83548   0.00002   0.00000   0.00159   0.00165  -1.83383
   D15        0.73324   0.00009   0.00000  -0.00259  -0.00257   0.73068
   D16        1.96836  -0.00035   0.00000  -0.00592  -0.00590   1.96246
   D17        0.73324   0.00009   0.00000  -0.00259  -0.00257   0.73068
   D18        1.96836  -0.00035   0.00000  -0.00592  -0.00590   1.96246
   D19        3.14159   0.00000   0.00000   0.00000   0.00000   3.14159
         Item               Value     Threshold  Converged?
 Maximum Force            0.012142     0.000450     NO 
 RMS     Force            0.005152     0.000300     NO 
 Maximum Displacement     0.047195     0.001800     NO 
 RMS     Displacement     0.018288     0.001200     NO 
 Predicted change in Energy=-1.028841D-02
 GradGradGradGradGradGradGradGradGradGradGradGradGradGradGradGradGradGrad

                          Input orientation:                          
 ---------------------------------------------------------------------
 Center     Atomic     Atomic              Coordinates (Angstroms)
 Number     Number      Type              X           Y           Z
 ---------------------------------------------------------------------
    1         14             0       -0.817452   -1.197235    1.474238
    2         14             0        0.817452    1.197235    1.474238
    3         14             0       -0.817452   -1.197235   -1.474238
    4         14             0        0.817452    1.197235   -1.474238
    5         14             0        1.230525   -0.712916    0.000000
    6         14             0       -1.230525    0.712916    0.000000
    7         14             0        0.375352   -2.861828    0.000000
    8         14             0       -0.375352    2.861828    0.000000
 ---------------------------------------------------------------------
                    Distance matrix (angstroms):
                    1          2          3          4          5
     1  Si   0.000000
     2  Si   2.899378   0.000000
     3  Si   2.948475   4.135203   0.000000
     4  Si   4.135203   2.948475   2.899378   0.000000
     5  Si   2.569466   2.447995   2.569466   2.447995   0.000000
     6  Si   2.447995   2.569466   2.447995   2.569466   2.844251
     7  Si   2.523298   4.341062   2.523298   4.341062   2.312822
     8  Si   4.341062   2.523298   4.341062   2.523298   3.918882
                    6          7          8
     6  Si   0.000000
     7  Si   3.918882   0.000000
     8  Si   2.312822   5.772678   0.000000
 Stoichiometry    Si8
 Framework group  C2H[SGH(Si4),X(Si4)]
 Deg. of freedom     6
 Full point group                 C2H
 Largest Abelian subgroup         C2H     NOp   4
 Largest concise Abelian subgroup C2H     NOp   4
                         Standard orientation:                         
 ---------------------------------------------------------------------
 Center     Atomic     Atomic              Coordinates (Angstroms)
 Number     Number      Type              X           Y           Z
 ---------------------------------------------------------------------
    1         14             0        0.683014    1.278707    1.474238
    2         14             0       -0.683014   -1.278707    1.474238
    3         14             0        0.683014    1.278707   -1.474238
    4         14             0       -0.683014   -1.278707   -1.474238
    5         14             0       -1.300483    0.575487    0.000000
    6         14             0        1.300483   -0.575487    0.000000
    7         14             0       -0.683014    2.804361    0.000000
    8         14             0        0.683014   -2.804361    0.000000
 ---------------------------------------------------------------------
 Rotational constants (GHZ):      1.2308140      0.6204796      0.5676329
 Standard basis: LANL2DZ (5D, 7F)
 There are    20 symmetry adapted basis functions of AG  symmetry.
 There are    12 symmetry adapted basis functions of BG  symmetry.
 There are    12 symmetry adapted basis functions of AU  symmetry.
 There are    20 symmetry adapted basis functions of BU  symmetry.
 Integral buffers will be    131072 words long.
 Raffenetti 2 integral format.
 Two-electron integral symmetry is turned on.
    64 basis functions,    96 primitive gaussians,    64 cartesian basis functions
    16 alpha electrons       16 beta electrons
       nuclear repulsion energy        80.0037756114 Hartrees.
 NAtoms=    8 NActive=    8 NUniq=    3 SFac= 3.00D+00 NAtFMM=   80 NAOKFM=F Big=F
 One-electron integrals computed using PRISM.
   4 Symmetry operations used in ECPInt.
 ECPInt:  NShTT=     528 NPrTT=    1192 LenC2=     529 LenP2D=    1168.
 LDataN:  DoStor=F MaxTD1= 3 Len=   28
 LDataN:  DoStor=T MaxTD1= 3 Len=   28
 NBasis=    64 RedAO= T  NBF=    20    12    12    20
 NBsUse=    64 1.00D-06 NBFU=    20    12    12    20
 Initial guess read from the read-write file:
 Initial guess orbital symmetries:
       Occupied  (AG) (BU) (AU) (BU) (AG) (BG) (AG) (BU) (BG) (AG)
                 (AG) (BU) (AU) (AG) (BU) (AU)
       Virtual   (BU) (AU) (BG) (AG) (BG) (BU) (BU) (AU) (AG) (BG)
                 (BU) (AG) (BG) (AU) (BU) (AG) (BG) (AU) (BU) (BG)
                 (AG) (BU) (AG) (AG) (BU) (BU) (AU) (AG) (AU) (BG)
                 (BU) (AU) (BG) (BU) (AG) (BG) (AG) (AG) (BU) (AU)
                 (AG) (BU) (AU) (BU) (BG) (AG) (BU) (AG)
 Harris functional with IExCor=  402 diagonalized for initial guess.
 ExpMin= 8.85D-02 ExpMax= 2.58D+00 ExpMxC= 2.58D+00 IAcc=2 IRadAn=         4 AccDes= 0.00D+00
 HarFok:  IExCor= 402 AccDes= 0.00D+00 IRadAn=         4 IDoV=1
 ScaDFX=  1.000000  1.000000  1.000000  1.000000
 Requested convergence on RMS density matrix=1.00D-08 within 128 cycles.
 Requested convergence on MAX density matrix=1.00D-06.
 Requested convergence on             energy=1.00D-06.
 No special actions if energy rises.
 Keep R1 integrals in memory in canonical form, NReq=     3944712.
 Integral accuracy reduced to 1.0D-05 until final iterations.
 Initial convergence to 1.0D-05 achieved.  Increase integral accuracy.
 SCF Done:  E(RB+HF-LYP) =  -30.8211192002     A.U. after   14 cycles
             Convg  =    0.2021D-08             -V/T =  3.5831
             S**2   =   0.0000
 QCSCF skips out because SCF is already converged.
 Range of M.O.s used for correlation:     1    64
 NBasis=    64 NAE=    16 NBE=    16 NFC=     0 NFV=     0
 NROrb=     64 NOA=    16 NOB=    16 NVA=    48 NVB=    48

 **** Warning!!: The smallest alpha delta epsilon is  0.90645393D-01

   4 Symmetry operations used in ECPInt.
 ECPInt:  NShTT=     528 NPrTT=    1192 LenC2=     529 LenP2D=    1168.
 LDataN:  DoStor=F MaxTD1= 4 Len=   56
 LDataN:  DoStor=T MaxTD1= 4 Len=   56
 Symmetrizing basis deriv contribution to polar:
 IMax=3 JMax=2 DiffMx= 0.00D+00
 G2DrvN: will do    9 centers at a time, making    1 passes doing MaxLOS=1.
 FoFDir/FoFCou used for L=0 through L=1.
 DoAtom=TTTTTTTT
          Differentiating once with respect to electric field.
                with respect to dipole field.
          Differentiating once with respect to nuclear coordinates.
          Store integrals in memory, NReq=     2966789.
          There are  12 degrees of freedom in the 1st order CPHF.
    12 vectors were produced by pass  0.
 AX will form  12 AO Fock derivatives at one time.
    12 vectors were produced by pass  1.
    12 vectors were produced by pass  2.
    12 vectors were produced by pass  3.
    12 vectors were produced by pass  4.
    12 vectors were produced by pass  5.
    12 vectors were produced by pass  6.
    10 vectors were produced by pass  7.
     3 vectors were produced by pass  8.
     2 vectors were produced by pass  9.
 Inv2:  IOpt= 1 Iter= 1 AM= 1.27D-15 Conv= 1.00D-12.
 Inverted reduced A of dimension   99 with in-core refinement.
 Isotropic polarizability for W=    0.000000      242.53 Bohr**3.
 End of Minotr Frequency-dependent properties file   721 does not exist.
   4 Symmetry operations used in ECPInt.
 ECPInt:  NShTT=     528 NPrTT=    1192 LenC2=     529 LenP2D=    1192.
 LDataN:  DoStor=F MaxTD1= 5 Len=  102
 LDataN:  DoStor=T MaxTD1= 5 Len=  102
 ***** Axes restored to original set *****
 -------------------------------------------------------------------
 Center     Atomic                   Forces (Hartrees/Bohr)
 Number     Number              X              Y              Z
 -------------------------------------------------------------------
    1         14          -0.012688285   -0.005634505    0.020721438
    2         14           0.012688285    0.005634505    0.020721438
    3         14          -0.012688285   -0.005634505   -0.020721438
    4         14           0.012688285    0.005634505   -0.020721438
    5         14           0.024402750   -0.003079862    0.000000000
    6         14          -0.024402750    0.003079862    0.000000000
    7         14           0.004212008   -0.011936992    0.000000000
    8         14          -0.004212008    0.011936992    0.000000000
 -------------------------------------------------------------------
 Cartesian Forces:  Max     0.024402750 RMS     0.012940405

 GradGradGradGradGradGradGradGradGradGradGradGradGradGradGradGradGradGrad
 Berny optimization.
 Internal  Forces:  Max     0.009106129 RMS     0.003830001
 Search for a local minimum.
 Step number   2 out of a maximum of 100
 All quantities printed in internal units (Hartrees-Bohrs-Radians)
 Second derivative matrix not updated -- analytic derivatives used.
 Trust test= 1.01D+00 RLast= 3.00D-01 DXMaxT set to 4.24D-01
 Maximum step size (   0.424) exceeded in linear search.
    -- Step size scaled by   0.707
 Quintic linear search produced a step of  1.41422.
 Iteration  1 RMS(Cart)=  0.02582415 RMS(Int)=  0.00018780
 Iteration  2 RMS(Cart)=  0.00008783 RMS(Int)=  0.00016310
 Iteration  3 RMS(Cart)=  0.00000000 RMS(Int)=  0.00016310
 Variable       Old X    -DE/DX   Delta X   Delta X   Delta X     New X
                                 (Linear)    (Quad)   (Total)
    R1        5.47903   0.00580   0.08849   0.00000   0.08859   5.56762
    R2        5.57181   0.00911   0.13349   0.00000   0.13352   5.70534
    R3        4.85559   0.00855   0.12457   0.00000   0.12471   4.98030
    R4        4.62604   0.00446   0.06818   0.00000   0.06801   4.69405
    R5        4.76834   0.00640   0.08372   0.00000   0.08375   4.85209
    R6        5.57181   0.00911   0.13349   0.00000   0.13352   5.70534
    R7        4.62604   0.00446   0.06818   0.00000   0.06801   4.69405
    R8        4.85559   0.00855   0.12457   0.00000   0.12471   4.98030
    R9        4.76834   0.00640   0.08372   0.00000   0.08375   4.85209
   R10        5.47903   0.00580   0.08849   0.00000   0.08859   5.56762
   R11        4.85559   0.00855   0.12457   0.00000   0.12471   4.98030
   R12        4.62604   0.00446   0.06818   0.00000   0.06801   4.69405
   R13        4.76834   0.00640   0.08372   0.00000   0.08375   4.85209
   R14        4.62604   0.00446   0.06818   0.00000   0.06801   4.69405
   R15        4.85559   0.00855   0.12457   0.00000   0.12471   4.98030
   R16        4.76834   0.00640   0.08372   0.00000   0.08375   4.85209
   R17        5.37486   0.00777   0.11373   0.00000   0.11383   5.48868
   R18        4.37060   0.00455   0.04566   0.00000   0.04540   4.41600
   R19        4.37060   0.00455   0.04566   0.00000   0.04540   4.41600
    A1        1.57080   0.00000   0.00000   0.00000   0.00000   1.57080
    A2        1.85277  -0.00089  -0.01678   0.00000  -0.01640   1.83637
    A3        1.81591  -0.00074  -0.01335   0.00000  -0.01308   1.80283
    A4        1.57080   0.00000   0.00000   0.00000   0.00000   1.57080
    A5        1.85277  -0.00089  -0.01678   0.00000  -0.01640   1.83637
    A6        1.81591  -0.00074  -0.01335   0.00000  -0.01308   1.80283
    A7        1.57080   0.00000   0.00000   0.00000   0.00000   1.57080
    A8        1.85277  -0.00089  -0.01678   0.00000  -0.01640   1.83637
    A9        1.81591  -0.00074  -0.01335   0.00000  -0.01308   1.80283
   A10        1.57080   0.00000   0.00000   0.00000   0.00000   1.57080
   A11        1.85277  -0.00089  -0.01678   0.00000  -0.01640   1.83637
   A12        1.81591  -0.00074  -0.01335   0.00000  -0.01308   1.80283
   A13        1.93704  -0.00007  -0.00080   0.00000  -0.00073   1.93631
   A14        1.93704  -0.00007  -0.00080   0.00000  -0.00073   1.93631
   A15        2.29508  -0.00066  -0.00921   0.00000  -0.00909   2.28599
   A16        2.29508  -0.00066  -0.00921   0.00000  -0.00909   2.28599
   A17        1.71716  -0.00097  -0.01364   0.00000  -0.01343   1.70373
   A18        1.93704  -0.00007  -0.00080   0.00000  -0.00073   1.93631
   A19        2.29508  -0.00066  -0.00921   0.00000  -0.00909   2.28599
   A20        1.93704  -0.00007  -0.00080   0.00000  -0.00073   1.93631
   A21        2.29508  -0.00066  -0.00921   0.00000  -0.00909   2.28599
   A22        1.71716  -0.00097  -0.01364   0.00000  -0.01343   1.70373
    D1        0.00000   0.00000   0.00000   0.00000   0.00000   0.00000
    D2        0.91691  -0.00003  -0.00117   0.00000  -0.00128   0.91564
    D3        0.91691  -0.00003  -0.00117   0.00000  -0.00128   0.91564
    D4        1.83383  -0.00005  -0.00234   0.00000  -0.00255   1.83127
    D5        0.00000   0.00000   0.00000   0.00000   0.00000   0.00000
    D6       -0.73068   0.00001   0.00363   0.00000   0.00354  -0.72714
    D7       -1.96246   0.00035   0.00834   0.00000   0.00826  -1.95420
    D8        0.00000   0.00000   0.00000   0.00000   0.00000   0.00000
    D9       -0.73068   0.00001   0.00363   0.00000   0.00354  -0.72714
   D10       -1.96246   0.00035   0.00834   0.00000   0.00826  -1.95420
   D11        0.00000   0.00000   0.00000   0.00000   0.00000   0.00000
   D12       -0.91691   0.00003   0.00117   0.00000   0.00128  -0.91564
   D13       -0.91691   0.00003   0.00117   0.00000   0.00128  -0.91564
   D14       -1.83383   0.00005   0.00234   0.00000   0.00255  -1.83127
   D15        0.73068  -0.00001  -0.00363   0.00000  -0.00354   0.72714
   D16        1.96246  -0.00035  -0.00834   0.00000  -0.00826   1.95420
   D17        0.73068  -0.00001  -0.00363   0.00000  -0.00354   0.72714
   D18        1.96246  -0.00035  -0.00834   0.00000  -0.00826   1.95420
   D19        3.14159   0.00000   0.00000   0.00000   0.00000   3.14159
         Item               Value     Threshold  Converged?
 Maximum Force            0.009106     0.000450     NO 
 RMS     Force            0.003830     0.000300     NO 
 Maximum Displacement     0.066762     0.001800     NO 
 RMS     Displacement     0.025817     0.001200     NO 
 Predicted change in Energy=-9.683833D-03
 GradGradGradGradGradGradGradGradGradGradGradGradGradGradGradGradGradGrad

                          Input orientation:                          
 ---------------------------------------------------------------------
 Center     Atomic     Atomic              Coordinates (Angstroms)
 Number     Number      Type              X           Y           Z
 ---------------------------------------------------------------------
    1         14             0       -0.841520   -1.209112    1.509567
    2         14             0        0.841520    1.209112    1.509567
    3         14             0       -0.841520   -1.209112   -1.509567
    4         14             0        0.841520    1.209112   -1.509567
    5         14             0        1.262244   -0.718157    0.000000
    6         14             0       -1.262244    0.718157    0.000000
    7         14             0        0.386032   -2.884517    0.000000
    8         14             0       -0.386032    2.884517    0.000000
 ---------------------------------------------------------------------
                    Distance matrix (angstroms):
                    1          2          3          4          5
     1  Si   0.000000
     2  Si   2.946257   0.000000
     3  Si   3.019133   4.218483   0.000000
     4  Si   4.218483   3.019133   2.946257   0.000000
     5  Si   2.635460   2.483982   2.635460   2.483982   0.000000
     6  Si   2.483982   2.635460   2.483982   2.635460   2.904485
     7  Si   2.567617   4.386805   2.567617   4.386805   2.336848
     8  Si   4.386805   2.567617   4.386805   2.567617   3.961827
                    6          7          8
     6  Si   0.000000
     7  Si   3.961827   0.000000
     8  Si   2.336848   5.820466   0.000000
 Stoichiometry    Si8
 Framework group  C2H[SGH(Si4),X(Si4)]
 Deg. of freedom     6
 Full point group                 C2H
 Largest Abelian subgroup         C2H     NOp   4
 Largest concise Abelian subgroup C2H     NOp   4
                         Standard orientation:                         
 ---------------------------------------------------------------------
 Center     Atomic     Atomic              Coordinates (Angstroms)
 Number     Number      Type              X           Y           Z
 ---------------------------------------------------------------------
    1         14             0        0.702649    1.294756    1.509567
    2         14             0       -0.702649   -1.294756    1.509567
    3         14             0        0.702649    1.294756   -1.509567
    4         14             0       -0.702649   -1.294756   -1.509567
    5         14             0       -1.333919    0.574167    0.000000
    6         14             0        1.333919   -0.574167    0.000000
    7         14             0       -0.702649    2.824136    0.000000
    8         14             0        0.702649   -2.824136    0.000000
 ---------------------------------------------------------------------
 Rotational constants (GHZ):      1.1705408      0.6054199      0.5535135
 Standard basis: LANL2DZ (5D, 7F)
 There are    20 symmetry adapted basis functions of AG  symmetry.
 There are    12 symmetry adapted basis functions of BG  symmetry.
 There are    12 symmetry adapted basis functions of AU  symmetry.
 There are    20 symmetry adapted basis functions of BU  symmetry.
 Integral buffers will be    131072 words long.
 Raffenetti 2 integral format.
 Two-electron integral symmetry is turned on.
    64 basis functions,    96 primitive gaussians,    64 cartesian basis functions
    16 alpha electrons       16 beta electrons
       nuclear repulsion energy        78.6561921105 Hartrees.
 NAtoms=    8 NActive=    8 NUniq=    3 SFac= 3.00D+00 NAtFMM=   80 NAOKFM=F Big=F
 One-electron integrals computed using PRISM.
   4 Symmetry operations used in ECPInt.
 ECPInt:  NShTT=     528 NPrTT=    1192 LenC2=     529 LenP2D=    1168.
 LDataN:  DoStor=F MaxTD1= 3 Len=   28
 LDataN:  DoStor=T MaxTD1= 3 Len=   28
 NBasis=    64 RedAO= T  NBF=    20    12    12    20
 NBsUse=    64 1.00D-06 NBFU=    20    12    12    20
 Initial guess read from the read-write file:
 Initial guess orbital symmetries:
       Occupied  (AG) (BU) (AU) (BU) (AG) (BG) (AG) (BU) (BG) (AG)
                 (AG) (BU) (AU) (AG) (BU) (AU)
       Virtual   (BU) (AU) (BG) (AG) (BG) (BU) (BU) (AU) (AG) (BG)
                 (BU) (AG) (BG) (AU) (BU) (AG) (BG) (BU) (AU) (BG)
                 (BU) (AG) (AG) (AG) (BU) (BU) (AU) (AG) (AU) (BU)
                 (BG) (BG) (AG) (AU) (BU) (BG) (AG) (AG) (BU) (AU)
                 (AG) (BU) (AU) (BU) (BG) (AG) (BU) (AG)
 Harris functional with IExCor=  402 diagonalized for initial guess.
 ExpMin= 8.85D-02 ExpMax= 2.58D+00 ExpMxC= 2.58D+00 IAcc=2 IRadAn=         4 AccDes= 0.00D+00
 HarFok:  IExCor= 402 AccDes= 0.00D+00 IRadAn=         4 IDoV=1
 ScaDFX=  1.000000  1.000000  1.000000  1.000000
 Requested convergence on RMS density matrix=1.00D-08 within 128 cycles.
 Requested convergence on MAX density matrix=1.00D-06.
 Requested convergence on             energy=1.00D-06.
 No special actions if energy rises.
 Keep R1 integrals in memory in canonical form, NReq=     3944712.
 Integral accuracy reduced to 1.0D-05 until final iterations.
 Initial convergence to 1.0D-05 achieved.  Increase integral accuracy.
 SCF Done:  E(RB+HF-LYP) =  -30.8309468059     A.U. after   14 cycles
             Convg  =    0.2468D-08             -V/T =  3.6214
             S**2   =   0.0000
 QCSCF skips out because SCF is already converged.
 Range of M.O.s used for correlation:     1    64
 NBasis=    64 NAE=    16 NBE=    16 NFC=     0 NFV=     0
 NROrb=     64 NOA=    16 NOB=    16 NVA=    48 NVB=    48

 **** Warning!!: The smallest alpha delta epsilon is  0.90424187D-01

   4 Symmetry operations used in ECPInt.
 ECPInt:  NShTT=     528 NPrTT=    1192 LenC2=     529 LenP2D=    1168.
 LDataN:  DoStor=F MaxTD1= 4 Len=   56
 LDataN:  DoStor=T MaxTD1= 4 Len=   56
 Symmetrizing basis deriv contribution to polar:
 IMax=3 JMax=2 DiffMx= 0.00D+00
 G2DrvN: will do    9 centers at a time, making    1 passes doing MaxLOS=1.
 FoFDir/FoFCou used for L=0 through L=1.
 DoAtom=TTTTTTTT
          Differentiating once with respect to electric field.
                with respect to dipole field.
          Differentiating once with respect to nuclear coordinates.
          Store integrals in memory, NReq=     2966817.
          There are  12 degrees of freedom in the 1st order CPHF.
    12 vectors were produced by pass  0.
 AX will form  12 AO Fock derivatives at one time.
    12 vectors were produced by pass  1.
    12 vectors were produced by pass  2.
    12 vectors were produced by pass  3.
    12 vectors were produced by pass  4.
    12 vectors were produced by pass  5.
    12 vectors were produced by pass  6.
    10 vectors were produced by pass  7.
     3 vectors were produced by pass  8.
     2 vectors were produced by pass  9.
 Inv2:  IOpt= 1 Iter= 1 AM= 1.72D-15 Conv= 1.00D-12.
 Inverted reduced A of dimension   99 with in-core refinement.
 Isotropic polarizability for W=    0.000000      248.78 Bohr**3.
 End of Minotr Frequency-dependent properties file   721 does not exist.
   4 Symmetry operations used in ECPInt.
 ECPInt:  NShTT=     528 NPrTT=    1192 LenC2=     529 LenP2D=    1192.
 LDataN:  DoStor=F MaxTD1= 5 Len=  102
 LDataN:  DoStor=T MaxTD1= 5 Len=  102
 ***** Axes restored to original set *****
 -------------------------------------------------------------------
 Center     Atomic                   Forces (Hartrees/Bohr)
 Number     Number              X              Y              Z
 -------------------------------------------------------------------
    1         14          -0.007634772   -0.003576821    0.011994908
    2         14           0.007634772    0.003576821    0.011994908
    3         14          -0.007634772   -0.003576821   -0.011994908
    4         14           0.007634772    0.003576821   -0.011994908
    5         14           0.014420979   -0.002596581    0.000000000
    6         14          -0.014420979    0.002596581    0.000000000
    7         14           0.002584457   -0.005361784    0.000000000
    8         14          -0.002584457    0.005361784    0.000000000
 -------------------------------------------------------------------
 Cartesian Forces:  Max     0.014420979 RMS     0.007528044

 GradGradGradGradGradGradGradGradGradGradGradGradGradGradGradGradGradGrad
 Berny optimization.
 Internal  Forces:  Max     0.005324224 RMS     0.002208625
 Search for a local minimum.
 Step number   3 out of a maximum of 100
 All quantities printed in internal units (Hartrees-Bohrs-Radians)
 Second derivative matrix not updated -- analytic derivatives used.
 Maximum step size (   0.424) exceeded in linear search.
    -- Step size scaled by   0.589
 Quintic linear search produced a step of  1.00001.
 Iteration  1 RMS(Cart)=  0.02577185 RMS(Int)=  0.00020418
 Iteration  2 RMS(Cart)=  0.00008548 RMS(Int)=  0.00018327
 Iteration  3 RMS(Cart)=  0.00000001 RMS(Int)=  0.00018327
 Variable       Old X    -DE/DX   Delta X   Delta X   Delta X     New X
                                 (Linear)    (Quad)   (Total)
    R1        5.56762   0.00346   0.08859   0.00000   0.08870   5.65632
    R2        5.70534   0.00532   0.13353   0.00000   0.13357   5.83891
    R3        4.98030   0.00519   0.12471   0.00000   0.12487   5.10517
    R4        4.69405   0.00251   0.06801   0.00000   0.06781   4.76186
    R5        4.85209   0.00338   0.08375   0.00000   0.08378   4.93587
    R6        5.70534   0.00532   0.13353   0.00000   0.13357   5.83891
    R7        4.69405   0.00251   0.06801   0.00000   0.06781   4.76186
    R8        4.98030   0.00519   0.12471   0.00000   0.12487   5.10517
    R9        4.85209   0.00338   0.08375   0.00000   0.08378   4.93587
   R10        5.56762   0.00346   0.08859   0.00000   0.08870   5.65632
   R11        4.98030   0.00519   0.12471   0.00000   0.12487   5.10517
   R12        4.69405   0.00251   0.06801   0.00000   0.06781   4.76186
   R13        4.85209   0.00338   0.08375   0.00000   0.08378   4.93587
   R14        4.69405   0.00251   0.06801   0.00000   0.06781   4.76186
   R15        4.98030   0.00519   0.12471   0.00000   0.12487   5.10517
   R16        4.85209   0.00338   0.08375   0.00000   0.08378   4.93587
   R17        5.48868   0.00468   0.11383   0.00000   0.11394   5.60262
   R18        4.41600   0.00170   0.04540   0.00000   0.04512   4.46112
   R19        4.41600   0.00170   0.04540   0.00000   0.04512   4.46112
    A1        1.57080   0.00000   0.00000   0.00000   0.00000   1.57080
    A2        1.83637  -0.00075  -0.01640   0.00000  -0.01597   1.82040
    A3        1.80283  -0.00055  -0.01308   0.00000  -0.01278   1.79004
    A4        1.57080   0.00000   0.00000   0.00000   0.00000   1.57080
    A5        1.83637  -0.00075  -0.01640   0.00000  -0.01597   1.82040
    A6        1.80283  -0.00055  -0.01308   0.00000  -0.01278   1.79004
    A7        1.57080   0.00000   0.00000   0.00000   0.00000   1.57080
    A8        1.83637  -0.00075  -0.01640   0.00000  -0.01597   1.82040
    A9        1.80283  -0.00055  -0.01308   0.00000  -0.01278   1.79004
   A10        1.57080   0.00000   0.00000   0.00000   0.00000   1.57080
   A11        1.83637  -0.00075  -0.01640   0.00000  -0.01597   1.82040
   A12        1.80283  -0.00055  -0.01308   0.00000  -0.01278   1.79004
   A13        1.93631  -0.00005  -0.00073   0.00000  -0.00065   1.93566
   A14        1.93631  -0.00005  -0.00073   0.00000  -0.00065   1.93566
   A15        2.28599  -0.00040  -0.00909   0.00000  -0.00896   2.27704
   A16        2.28599  -0.00040  -0.00909   0.00000  -0.00896   2.27704
   A17        1.70373  -0.00062  -0.01343   0.00000  -0.01319   1.69054
   A18        1.93631  -0.00005  -0.00073   0.00000  -0.00065   1.93566
   A19        2.28599  -0.00040  -0.00909   0.00000  -0.00896   2.27704
   A20        1.93631  -0.00005  -0.00073   0.00000  -0.00065   1.93566
   A21        2.28599  -0.00040  -0.00909   0.00000  -0.00896   2.27704
   A22        1.70373  -0.00062  -0.01343   0.00000  -0.01319   1.69054
    D1        0.00000   0.00000   0.00000   0.00000   0.00000   0.00000
    D2        0.91564  -0.00003  -0.00128   0.00000  -0.00140   0.91424
    D3        0.91564  -0.00003  -0.00128   0.00000  -0.00140   0.91424
    D4        1.83127  -0.00005  -0.00255   0.00000  -0.00279   1.82848
    D5        0.00000   0.00000   0.00000   0.00000   0.00000   0.00000
    D6       -0.72714   0.00015   0.00354   0.00000   0.00344  -0.72369
    D7       -1.95420   0.00038   0.00826   0.00000   0.00817  -1.94604
    D8        0.00000   0.00000   0.00000   0.00000   0.00000   0.00000
    D9       -0.72714   0.00015   0.00354   0.00000   0.00344  -0.72369
   D10       -1.95420   0.00038   0.00826   0.00000   0.00817  -1.94604
   D11        0.00000   0.00000   0.00000   0.00000   0.00000   0.00000
   D12       -0.91564   0.00003   0.00128   0.00000   0.00140  -0.91424
   D13       -0.91564   0.00003   0.00128   0.00000   0.00140  -0.91424
   D14       -1.83127   0.00005   0.00255   0.00000   0.00279  -1.82848
   D15        0.72714  -0.00015  -0.00354   0.00000  -0.00344   0.72369
   D16        1.95420  -0.00038  -0.00826   0.00000  -0.00817   1.94604
   D17        0.72714  -0.00015  -0.00354   0.00000  -0.00344   0.72369
   D18        1.95420  -0.00038  -0.00826   0.00000  -0.00817   1.94604
   D19        3.14159   0.00000   0.00000   0.00000   0.00000   3.14159
         Item               Value     Threshold  Converged?
 Maximum Force            0.005324     0.000450     NO 
 RMS     Force            0.002209     0.000300     NO 
 Maximum Displacement     0.066785     0.001800     NO 
 RMS     Displacement     0.025765     0.001200     NO 
 Predicted change in Energy=-4.806170D-03
 GradGradGradGradGradGradGradGradGradGradGradGradGradGradGradGradGradGrad

                          Input orientation:                          
 ---------------------------------------------------------------------
 Center     Atomic     Atomic              Coordinates (Angstroms)
 Number     Number      Type              X           Y           Z
 ---------------------------------------------------------------------
    1         14             0       -0.865616   -1.220866    1.544908
    2         14             0        0.865616    1.220866    1.544908
    3         14             0       -0.865616   -1.220866   -1.544908
    4         14             0        0.865616    1.220866   -1.544908
    5         14             0        1.293996   -0.723222    0.000000
    6         14             0       -1.293996    0.723222    0.000000
    7         14             0        0.396661   -2.906752    0.000000
    8         14             0       -0.396661    2.906752    0.000000
 ---------------------------------------------------------------------
                    Distance matrix (angstroms):
                    1          2          3          4          5
     1  Si   0.000000
     2  Si   2.993195   0.000000
     3  Si   3.089816   4.301881   0.000000
     4  Si   4.301881   3.089816   2.993195   0.000000
     5  Si   2.701539   2.519867   2.701539   2.519867   0.000000
     6  Si   2.519867   2.701539   2.519867   2.701539   2.964778
     7  Si   2.611952   4.432142   2.611952   4.432142   2.360723
     8  Si   4.432142   2.611952   4.432142   2.611952   4.004377
                    6          7          8
     6  Si   0.000000
     7  Si   4.004377   0.000000
     8  Si   2.360723   5.867383   0.000000
 Stoichiometry    Si8
 Framework group  C2H[SGH(Si4),X(Si4)]
 Deg. of freedom     6
 Full point group                 C2H
 Largest Abelian subgroup         C2H     NOp   4
 Largest concise Abelian subgroup C2H     NOp   4
                         Standard orientation:                         
 ---------------------------------------------------------------------
 Center     Atomic     Atomic              Coordinates (Angstroms)
 Number     Number      Type              X           Y           Z
 ---------------------------------------------------------------------
    1         14             0        0.722262    1.310779    1.544908
    2         14             0       -0.722262   -1.310779    1.544908
    3         14             0        0.722262    1.310779   -1.544908
    4         14             0       -0.722262   -1.310779   -1.544908
    5         14             0       -1.367368    0.572523    0.000000
    6         14             0        1.367368   -0.572523    0.000000
    7         14             0       -0.722262    2.843393    0.000000
    8         14             0        0.722262   -2.843393    0.000000
 ---------------------------------------------------------------------
 Rotational constants (GHZ):      1.1145528      0.5909634      0.5399747
 Standard basis: LANL2DZ (5D, 7F)
 There are    20 symmetry adapted basis functions of AG  symmetry.
 There are    12 symmetry adapted basis functions of BG  symmetry.
 There are    12 symmetry adapted basis functions of AU  symmetry.
 There are    20 symmetry adapted basis functions of BU  symmetry.
 Integral buffers will be    131072 words long.
 Raffenetti 2 integral format.
 Two-electron integral symmetry is turned on.
    64 basis functions,    96 primitive gaussians,    64 cartesian basis functions
    16 alpha electrons       16 beta electrons
       nuclear repulsion energy        77.3589690255 Hartrees.
 NAtoms=    8 NActive=    8 NUniq=    3 SFac= 3.00D+00 NAtFMM=   80 NAOKFM=F Big=F
 One-electron integrals computed using PRISM.
   4 Symmetry operations used in ECPInt.
 ECPInt:  NShTT=     528 NPrTT=    1192 LenC2=     529 LenP2D=    1168.
 LDataN:  DoStor=F MaxTD1= 3 Len=   28
 LDataN:  DoStor=T MaxTD1= 3 Len=   28
 NBasis=    64 RedAO= T  NBF=    20    12    12    20
 NBsUse=    64 1.00D-06 NBFU=    20    12    12    20
 Initial guess read from the read-write file:
 Initial guess orbital symmetries:
       Occupied  (AG) (BU) (AU) (BU) (AG) (BG) (AG) (BU) (BG) (AG)
                 (AG) (BU) (AU) (AG) (BU) (AU)
       Virtual   (BU) (AU) (BG) (AG) (BG) (BU) (BU) (AU) (AG) (BG)
                 (BU) (AG) (BG) (AU) (BU) (AG) (BG) (BU) (AU) (BG)
                 (BU) (AG) (AG) (AG) (BU) (BU) (AU) (AG) (AU) (BU)
                 (BG) (BG) (AG) (AU) (BU) (BG) (AG) (AG) (AU) (BU)
                 (AG) (BU) (AU) (BU) (BG) (AG) (BU) (AG)
 Harris functional with IExCor=  402 diagonalized for initial guess.
 ExpMin= 8.85D-02 ExpMax= 2.58D+00 ExpMxC= 2.58D+00 IAcc=2 IRadAn=         4 AccDes= 0.00D+00
 HarFok:  IExCor= 402 AccDes= 0.00D+00 IRadAn=         4 IDoV=1
 ScaDFX=  1.000000  1.000000  1.000000  1.000000
 Requested convergence on RMS density matrix=1.00D-08 within 128 cycles.
 Requested convergence on MAX density matrix=1.00D-06.
 Requested convergence on             energy=1.00D-06.
 No special actions if energy rises.
 Keep R1 integrals in memory in canonical form, NReq=     3944712.
 Integral accuracy reduced to 1.0D-05 until final iterations.
 Initial convergence to 1.0D-05 achieved.  Increase integral accuracy.
 SCF Done:  E(RB+HF-LYP) =  -30.8358687065     A.U. after   14 cycles
             Convg  =    0.2717D-08             -V/T =  3.6576
             S**2   =   0.0000
 QCSCF skips out because SCF is already converged.
 Range of M.O.s used for correlation:     1    64
 NBasis=    64 NAE=    16 NBE=    16 NFC=     0 NFV=     0
 NROrb=     64 NOA=    16 NOB=    16 NVA=    48 NVB=    48

 **** Warning!!: The smallest alpha delta epsilon is  0.90006891D-01

   4 Symmetry operations used in ECPInt.
 ECPInt:  NShTT=     528 NPrTT=    1192 LenC2=     529 LenP2D=    1168.
 LDataN:  DoStor=F MaxTD1= 4 Len=   56
 LDataN:  DoStor=T MaxTD1= 4 Len=   56
 Symmetrizing basis deriv contribution to polar:
 IMax=3 JMax=2 DiffMx= 0.00D+00
 G2DrvN: will do    9 centers at a time, making    1 passes doing MaxLOS=1.
 FoFDir/FoFCou used for L=0 through L=1.
 DoAtom=TTTTTTTT
          Differentiating once with respect to electric field.
                with respect to dipole field.
          Differentiating once with respect to nuclear coordinates.
          Store integrals in memory, NReq=     2966817.
          There are  12 degrees of freedom in the 1st order CPHF.
    12 vectors were produced by pass  0.
 AX will form  12 AO Fock derivatives at one time.
    12 vectors were produced by pass  1.
    12 vectors were produced by pass  2.
    12 vectors were produced by pass  3.
    12 vectors were produced by pass  4.
    12 vectors were produced by pass  5.
    12 vectors were produced by pass  6.
    10 vectors were produced by pass  7.
     3 vectors were produced by pass  8.
     3 vectors were produced by pass  9.
 Inv2:  IOpt= 1 Iter= 1 AM= 1.11D-15 Conv= 1.00D-12.
 Inverted reduced A of dimension  100 with in-core refinement.
 Isotropic polarizability for W=    0.000000      255.03 Bohr**3.
 End of Minotr Frequency-dependent properties file   721 does not exist.
   4 Symmetry operations used in ECPInt.
 ECPInt:  NShTT=     528 NPrTT=    1192 LenC2=     529 LenP2D=    1192.
 LDataN:  DoStor=F MaxTD1= 5 Len=  102
 LDataN:  DoStor=T MaxTD1= 5 Len=  102
 ***** Axes restored to original set *****
 -------------------------------------------------------------------
 Center     Atomic                   Forces (Hartrees/Bohr)
 Number     Number              X              Y              Z
 -------------------------------------------------------------------
    1         14          -0.003304018   -0.001691438    0.004420360
    2         14           0.003304018    0.001691438    0.004420360
    3         14          -0.003304018   -0.001691438   -0.004420360
    4         14           0.003304018    0.001691438   -0.004420360
    5         14           0.005916539   -0.002092133    0.000000000
    6         14          -0.005916539    0.002092133    0.000000000
    7         14           0.001188936    0.000354905    0.000000000
    8         14          -0.001188936   -0.000354905    0.000000000
 -------------------------------------------------------------------
 Cartesian Forces:  Max     0.005916539 RMS     0.002993829

 GradGradGradGradGradGradGradGradGradGradGradGradGradGradGradGradGradGrad
 Berny optimization.
 Internal  Forces:  Max     0.002387382 RMS     0.000907118
 Search for a local minimum.
 Step number   4 out of a maximum of 100
 All quantities printed in internal units (Hartrees-Bohrs-Radians)
 Second derivative matrix not updated -- analytic derivatives used.
     Eigenvalues ---   -0.00113  -0.00024   0.01193   0.01259   0.01658
     Eigenvalues ---    0.01817   0.01831   0.01891   0.01985   0.02312
     Eigenvalues ---    0.02379   0.02692   0.02905   0.03058   0.03820
     Eigenvalues ---    0.04479   0.06997   0.071061000.000001000.00000
     Eigenvalues --- 1000.000001000.000001000.000001000.000001000.00000
     Eigenvalues --- 1000.000001000.000001000.000001000.000001000.00000
     Eigenvalues --- 1000.000001000.000001000.000001000.000001000.00000
     Eigenvalues --- 1000.000001000.000001000.000001000.000001000.00000
     Eigenvalues --- 1000.000001000.000001000.000001000.000001000.00000
     Eigenvalues --- 1000.000001000.000001000.000001000.000001000.00000
     Eigenvalues --- 1000.000001000.000001000.000001000.000001000.00000
     Eigenvalues --- 1000.000001000.000001000.000001000.000001000.00000
 RFO step:  Lambda=-1.13092659D-03.
 Quintic linear search produced a step of  0.67060.
 Maximum step size (   0.424) exceeded in Quadratic search.
    -- Step size scaled by   0.974
 Iteration  1 RMS(Cart)=  0.03322782 RMS(Int)=  0.01554652
 Iteration  2 RMS(Cart)=  0.01010550 RMS(Int)=  0.00082532
 Iteration  3 RMS(Cart)=  0.00002465 RMS(Int)=  0.00082402
 Iteration  4 RMS(Cart)=  0.00000001 RMS(Int)=  0.00082402
 Variable       Old X    -DE/DX   Delta X   Delta X   Delta X     New X
                                 (Linear)    (Quad)   (Total)
    R1        5.65632   0.00140   0.05948   0.23146   0.29089   5.94721
    R2        5.83891   0.00205   0.08957  -0.08934  -0.00081   5.83809
    R3        5.10517   0.00239   0.08374   0.05100   0.13420   5.23937
    R4        4.76186   0.00073   0.04547  -0.03319   0.01132   4.77317
    R5        4.93587   0.00077   0.05618  -0.04119   0.01641   4.95228
    R6        5.83891   0.00205   0.08957  -0.08934  -0.00081   5.83809
    R7        4.76186   0.00073   0.04547  -0.03319   0.01132   4.77317
    R8        5.10517   0.00239   0.08374   0.05100   0.13420   5.23937
    R9        4.93587   0.00077   0.05618  -0.04119   0.01641   4.95228
   R10        5.65632   0.00140   0.05948   0.24062   0.29089   5.94721
   R11        5.10517   0.00239   0.08374   0.05131   0.13420   5.23937
   R12        4.76186   0.00073   0.04547  -0.03432   0.01132   4.77317
   R13        4.93587   0.00077   0.05618  -0.04081   0.01641   4.95228
   R14        4.76186   0.00073   0.04547  -0.03432   0.01132   4.77317
   R15        5.10517   0.00239   0.08374   0.05131   0.13420   5.23937
   R16        4.93587   0.00077   0.05618  -0.04081   0.01641   4.95228
   R17        5.60262   0.00204   0.07641  -0.10934  -0.03345   5.56917
   R18        4.46112  -0.00084   0.03025   0.00144   0.03081   4.49192
   R19        4.46112  -0.00084   0.03025   0.00144   0.03081   4.49192
    A1        1.57080   0.00000   0.00000   0.00078   0.00000   1.57080
    A2        1.82040  -0.00069  -0.01071  -0.03986  -0.04962   1.77078
    A3        1.79004  -0.00042  -0.00857  -0.00930  -0.01872   1.77133
    A4        1.57080   0.00000   0.00000   0.00078   0.00000   1.57080
    A5        1.82040  -0.00069  -0.01071  -0.03986  -0.04962   1.77078
    A6        1.79004  -0.00042  -0.00857  -0.00930  -0.01872   1.77133
    A7        1.57080   0.00000   0.00000  -0.00078   0.00000   1.57080
    A8        1.82040  -0.00069  -0.01071  -0.04104  -0.04962   1.77078
    A9        1.79004  -0.00042  -0.00857  -0.00911  -0.01872   1.77133
   A10        1.57080   0.00000   0.00000  -0.00078   0.00000   1.57080
   A11        1.82040  -0.00069  -0.01071  -0.04104  -0.04962   1.77078
   A12        1.79004  -0.00042  -0.00857  -0.00911  -0.01872   1.77133
   A13        1.93566  -0.00005  -0.00044   0.03049   0.02952   1.96518
   A14        1.93566  -0.00005  -0.00044   0.03007   0.02952   1.96518
   A15        2.27704  -0.00021  -0.00601   0.03066   0.02498   2.30202
   A16        2.27704  -0.00021  -0.00601   0.03325   0.02498   2.30202
   A17        1.69054  -0.00037  -0.00885   0.00042  -0.00894   1.68159
   A18        1.93566  -0.00005  -0.00044   0.03007   0.02952   1.96518
   A19        2.27704  -0.00021  -0.00601   0.03066   0.02498   2.30202
   A20        1.93566  -0.00005  -0.00044   0.03049   0.02952   1.96518
   A21        2.27704  -0.00021  -0.00601   0.03325   0.02498   2.30202
   A22        1.69054  -0.00037  -0.00885   0.00042  -0.00894   1.68159
    D1        0.00000   0.00000   0.00000  -0.00026   0.00000   0.00000
    D2        0.91424  -0.00002  -0.00094   0.01327   0.01128   0.92552
    D3        0.91424  -0.00002  -0.00094   0.01327   0.01128   0.92552
    D4        1.82848  -0.00003  -0.00187   0.02680   0.02255   1.85104
    D5        0.00000   0.00000   0.00000   0.00027   0.00000   0.00000
    D6       -0.72369   0.00028   0.00231   0.01587   0.01912  -0.70458
    D7       -1.94604   0.00045   0.00548   0.01331   0.01849  -1.92754
    D8        0.00000   0.00000   0.00000   0.00027   0.00000   0.00000
    D9       -0.72369   0.00028   0.00231   0.01587   0.01912  -0.70458
   D10       -1.94604   0.00045   0.00548   0.01331   0.01849  -1.92754
   D11        0.00000   0.00000   0.00000  -0.00026   0.00000   0.00000
   D12       -0.91424   0.00002   0.00094  -0.01340  -0.01128  -0.92552
   D13       -0.91424   0.00002   0.00094  -0.01340  -0.01128  -0.92552
   D14       -1.82848   0.00003   0.00187  -0.02655  -0.02255  -1.85104
   D15        0.72369  -0.00028  -0.00231  -0.01887  -0.01912   0.70458
   D16        1.94604  -0.00045  -0.00548  -0.01580  -0.01849   1.92754
   D17        0.72369  -0.00028  -0.00231  -0.01887  -0.01912   0.70458
   D18        1.94604  -0.00045  -0.00548  -0.01580  -0.01849   1.92754
   D19        3.14159   0.00000   0.00000  -0.00150   0.00000   3.14159
         Item               Value     Threshold  Converged?
 Maximum Force            0.002387     0.000450     NO 
 RMS     Force            0.000907     0.000300     NO 
 Maximum Displacement     0.126445     0.001800     NO 
 RMS     Displacement     0.041164     0.001200     NO 
 Predicted change in Energy=-1.193970D-03
 GradGradGradGradGradGradGradGradGradGradGradGradGradGradGradGradGradGrad

                          Input orientation:                          
 ---------------------------------------------------------------------
 Center     Atomic     Atomic              Coordinates (Angstroms)
 Number     Number      Type              X           Y           Z
 ---------------------------------------------------------------------
    1         14             0       -0.932528   -1.267477    1.544693
    2         14             0        0.932528    1.267477    1.544693
    3         14             0       -0.932528   -1.267477   -1.544693
    4         14             0        0.932528    1.267477   -1.544693
    5         14             0        1.298131   -0.697262    0.000000
    6         14             0       -1.298131    0.697262    0.000000
    7         14             0        0.411790   -2.902855    0.000000
    8         14             0       -0.411790    2.902855    0.000000
 ---------------------------------------------------------------------
                    Distance matrix (angstroms):
                    1          2          3          4          5
     1  Si   0.000000
     2  Si   3.147129   0.000000
     3  Si   3.089387   4.410072   0.000000
     4  Si   4.410072   3.089387   3.147129   0.000000
     5  Si   2.772555   2.525854   2.772555   2.525854   0.000000
     6  Si   2.525854   2.772555   2.525854   2.772555   2.947079
     7  Si   2.620636   4.477601   2.620636   4.477601   2.377024
     8  Si   4.477601   2.620636   4.477601   2.620636   3.985558
                    6          7          8
     6  Si   0.000000
     7  Si   3.985558   0.000000
     8  Si   2.377024   5.863835   0.000000
 Stoichiometry    Si8
 Framework group  C2H[SGH(Si4),X(Si4)]
 Deg. of freedom     6
 Full point group                 C2H
 Largest Abelian subgroup         C2H     NOp   4
 Largest concise Abelian subgroup C2H     NOp   4
                         Standard orientation:                         
 ---------------------------------------------------------------------
 Center     Atomic     Atomic              Coordinates (Angstroms)
 Number     Number      Type              X           Y           Z
 ---------------------------------------------------------------------
    1         14             0        0.768295    1.373255    1.544693
    2         14             0       -0.768295   -1.373255    1.544693
    3         14             0        0.768295    1.373255   -1.544693
    4         14             0       -0.768295   -1.373255   -1.544693
    5         14             0       -1.374522    0.531044    0.000000
    6         14             0        1.374522   -0.531044    0.000000
    7         14             0       -0.768295    2.829463    0.000000
    8         14             0        0.768295   -2.829463    0.000000
 ---------------------------------------------------------------------
 Rotational constants (GHZ):      1.0806542      0.5745711      0.5342517
 Standard basis: LANL2DZ (5D, 7F)
 There are    20 symmetry adapted basis functions of AG  symmetry.
 There are    12 symmetry adapted basis functions of BG  symmetry.
 There are    12 symmetry adapted basis functions of AU  symmetry.
 There are    20 symmetry adapted basis functions of BU  symmetry.
 Integral buffers will be    131072 words long.
 Raffenetti 2 integral format.
 Two-electron integral symmetry is turned on.
    64 basis functions,    96 primitive gaussians,    64 cartesian basis functions
    16 alpha electrons       16 beta electrons
       nuclear repulsion energy        76.5017381258 Hartrees.
 NAtoms=    8 NActive=    8 NUniq=    3 SFac= 3.00D+00 NAtFMM=   80 NAOKFM=F Big=F
 One-electron integrals computed using PRISM.
   4 Symmetry operations used in ECPInt.
 ECPInt:  NShTT=     528 NPrTT=    1192 LenC2=     529 LenP2D=    1168.
 LDataN:  DoStor=F MaxTD1= 3 Len=   28
 LDataN:  DoStor=T MaxTD1= 3 Len=   28
 NBasis=    64 RedAO= T  NBF=    20    12    12    20
 NBsUse=    64 1.00D-06 NBFU=    20    12    12    20
 Initial guess read from the read-write file:
 Initial guess orbital symmetries:
       Occupied  (AG) (BU) (AU) (BU) (AG) (BG) (AG) (BU) (BG) (AG)
                 (AG) (BU) (AU) (BU) (AG) (AU)
       Virtual   (BU) (AU) (BG) (AG) (BG) (BU) (AU) (BU) (AG) (BG)
                 (BU) (AG) (BG) (AU) (BU) (AG) (BU) (AU) (BG) (BU)
                 (BG) (AG) (AG) (BU) (AG) (AU) (BU) (AG) (AU) (BU)
                 (BG) (AG) (BG) (BG) (BU) (AU) (AG) (AU) (AG) (BU)
                 (AG) (BU) (AU) (BU) (AG) (BG) (BU) (AG)
 Harris functional with IExCor=  402 diagonalized for initial guess.
 ExpMin= 8.85D-02 ExpMax= 2.58D+00 ExpMxC= 2.58D+00 IAcc=2 IRadAn=         4 AccDes= 0.00D+00
 HarFok:  IExCor= 402 AccDes= 0.00D+00 IRadAn=         4 IDoV=1
 ScaDFX=  1.000000  1.000000  1.000000  1.000000
 Requested convergence on RMS density matrix=1.00D-08 within 128 cycles.
 Requested convergence on MAX density matrix=1.00D-06.
 Requested convergence on             energy=1.00D-06.
 No special actions if energy rises.
 Keep R1 integrals in memory in canonical form, NReq=     3944712.
 Integral accuracy reduced to 1.0D-05 until final iterations.
 Initial convergence to 1.0D-05 achieved.  Increase integral accuracy.
 SCF Done:  E(RB+HF-LYP) =  -30.8370666215     A.U. after   14 cycles
             Convg  =    0.5517D-08             -V/T =  3.6780
             S**2   =   0.0000
 QCSCF skips out because SCF is already converged.
 Range of M.O.s used for correlation:     1    64
 NBasis=    64 NAE=    16 NBE=    16 NFC=     0 NFV=     0
 NROrb=     64 NOA=    16 NOB=    16 NVA=    48 NVB=    48

 **** Warning!!: The smallest alpha delta epsilon is  0.86645575D-01

   4 Symmetry operations used in ECPInt.
 ECPInt:  NShTT=     528 NPrTT=    1192 LenC2=     529 LenP2D=    1168.
 LDataN:  DoStor=F MaxTD1= 4 Len=   56
 LDataN:  DoStor=T MaxTD1= 4 Len=   56
 Symmetrizing basis deriv contribution to polar:
 IMax=3 JMax=2 DiffMx= 0.00D+00
 G2DrvN: will do    9 centers at a time, making    1 passes doing MaxLOS=1.
 FoFDir/FoFCou used for L=0 through L=1.
 DoAtom=TTTTTTTT
          Differentiating once with respect to electric field.
                with respect to dipole field.
          Differentiating once with respect to nuclear coordinates.
          Store integrals in memory, NReq=     2966817.
          There are  12 degrees of freedom in the 1st order CPHF.
    12 vectors were produced by pass  0.
 AX will form  12 AO Fock derivatives at one time.
    12 vectors were produced by pass  1.
    12 vectors were produced by pass  2.
    12 vectors were produced by pass  3.
    12 vectors were produced by pass  4.
[...]
 Vib (V=0)  1    0.506954D+01          0.704968          1.623250
 Vib (V=0)  2    0.309233D+01          0.490285          1.128924
 Vib (V=0)  3    0.190959D+01          0.280941          0.646890
 Vib (V=0)  4    0.189653D+01          0.277959          0.640024
 Vib (V=0)  5    0.150596D+01          0.177814          0.409431
 Vib (V=0)  6    0.147104D+01          0.167624          0.385970
 Vib (V=0)  7    0.145779D+01          0.163696          0.376923
 Vib (V=0)  8    0.138590D+01          0.141731          0.326349
 Vib (V=0)  9    0.134466D+01          0.128612          0.296140
 Vib (V=0) 10    0.134353D+01          0.128247          0.295300
 Vib (V=0) 11    0.133329D+01          0.124924          0.287647
 Vib (V=0) 12    0.130561D+01          0.115814          0.266671
 Vib (V=0) 13    0.128409D+01          0.108597          0.250054
 Vib (V=0) 14    0.124043D+01          0.093571          0.215456
 Vib (V=0) 15    0.120696D+01          0.081693          0.188105
 Vib (V=0) 16    0.119770D+01          0.078348          0.180404
 Vib (V=0) 17    0.109876D+01          0.040904          0.094185
 Vib (V=0) 18    0.109655D+01          0.040030          0.092173
 Electronic      0.100000D+01          0.000000          0.000000
 Translational   0.131610D+09          8.119290         18.695357
 Rotational      0.633423D+06          5.801694         13.358894
 ***** Axes restored to original set *****
 -------------------------------------------------------------------
 Center     Atomic                   Forces (Hartrees/Bohr)
 Number     Number              X              Y              Z
 -------------------------------------------------------------------
    1         14          -0.000009953   -0.000010670   -0.000003185
    2         14           0.000009953    0.000010670   -0.000003185
    3         14          -0.000009953   -0.000010670    0.000003185
    4         14           0.000009953    0.000010670    0.000003185
    5         14          -0.000003963    0.000001414    0.000000000
    6         14           0.000003963   -0.000001414    0.000000000
    7         14           0.000000459   -0.000002974    0.000000000
    8         14          -0.000000459    0.000002974    0.000000000
 -------------------------------------------------------------------
 Cartesian Forces:  Max     0.000010670 RMS     0.000006277

 GradGradGradGradGradGradGradGradGradGradGradGradGradGradGradGradGradGrad
 Berny optimization.
 Internal  Forces:  Max     0.000012260 RMS     0.000002663
 Search for a local minimum.
 Step number   1 out of a maximum of   2
 All quantities printed in internal units (Hartrees-Bohrs-Radians)
 Second derivative matrix not updated -- analytic derivatives used.
     Eigenvalues ---    0.00101   0.00300   0.01417   0.01683   0.02305
     Eigenvalues ---    0.02474   0.02737   0.02845   0.02853   0.03068
     Eigenvalues ---    0.03400   0.03982   0.04140   0.04485   0.05352
     Eigenvalues ---    0.06021   0.09077   0.091691000.000001000.00000
     Eigenvalues --- 1000.000001000.000001000.000001000.000001000.00000
     Eigenvalues --- 1000.000001000.000001000.000001000.000001000.00000
     Eigenvalues --- 1000.000001000.000001000.000001000.000001000.00000
     Eigenvalues --- 1000.000001000.000001000.000001000.000001000.00000
     Eigenvalues --- 1000.000001000.000001000.000001000.000001000.00000
     Eigenvalues --- 1000.000001000.000001000.000001000.000001000.00000
     Eigenvalues --- 1000.000001000.000001000.000001000.000001000.00000
     Eigenvalues --- 1000.000001000.000001000.000001000.000001000.00000
 Angle between quadratic step and forces=  19.47 degrees.
 Linear search not attempted -- first point.
 Iteration  1 RMS(Cart)=  0.00054588 RMS(Int)=  0.00000027
 Iteration  2 RMS(Cart)=  0.00000011 RMS(Int)=  0.00000019
 Variable       Old X    -DE/DX   Delta X   Delta X   Delta X     New X
                                 (Linear)    (Quad)   (Total)
    R1        5.37577   0.00001   0.00000   0.00358   0.00358   5.37936
    R2        5.51232   0.00000   0.00000  -0.00121  -0.00121   5.51112
    R3        4.78559   0.00000   0.00000   0.00037   0.00037   4.78597
    R4        4.57472   0.00000   0.00000  -0.00036  -0.00036   4.57436
    R5        4.70880   0.00000   0.00000  -0.00036  -0.00036   4.70845
    R6        5.51232   0.00000   0.00000  -0.00121  -0.00121   5.51112
    R7        4.57472   0.00000   0.00000  -0.00036  -0.00036   4.57436
    R8        4.78559   0.00000   0.00000   0.00037   0.00037   4.78597
    R9        4.70880   0.00000   0.00000  -0.00036  -0.00036   4.70845
   R10        5.37577   0.00001   0.00000   0.00358   0.00358   5.37936
   R11        4.78559   0.00000   0.00000   0.00037   0.00037   4.78597
   R12        4.57472   0.00000   0.00000  -0.00036  -0.00036   4.57436
   R13        4.70880   0.00000   0.00000  -0.00036  -0.00036   4.70845
   R14        4.57472   0.00000   0.00000  -0.00036  -0.00036   4.57436
   R15        4.78559   0.00000   0.00000   0.00037   0.00037   4.78597
   R16        4.70880   0.00000   0.00000  -0.00036  -0.00036   4.70845
   R17        5.32684   0.00000   0.00000  -0.00232  -0.00232   5.32452
   R18        4.30986   0.00000   0.00000   0.00038   0.00038   4.31024
   R19        4.30986   0.00000   0.00000   0.00038   0.00038   4.31024
    A1        1.57080   0.00000   0.00000   0.00000   0.00000   1.57080
    A2        1.85924   0.00000   0.00000  -0.00050  -0.00050   1.85873
    A3        1.81736   0.00000   0.00000  -0.00010  -0.00010   1.81726
    A4        1.57080   0.00000   0.00000   0.00000   0.00000   1.57080
    A5        1.85924   0.00000   0.00000  -0.00050  -0.00050   1.85873
    A6        1.81736   0.00000   0.00000  -0.00010  -0.00010   1.81726
    A7        1.57080   0.00000   0.00000   0.00000   0.00000   1.57080
    A8        1.85924   0.00000   0.00000  -0.00050  -0.00050   1.85873
    A9        1.81736   0.00000   0.00000  -0.00010  -0.00010   1.81726
   A10        1.57080   0.00000   0.00000   0.00000   0.00000   1.57080
   A11        1.85924   0.00000   0.00000  -0.00050  -0.00050   1.85873
   A12        1.81736   0.00000   0.00000  -0.00010  -0.00010   1.81726
   A13        1.93153   0.00000   0.00000   0.00061   0.00061   1.93214
   A14        1.93153   0.00000   0.00000   0.00061   0.00061   1.93214
   A15        2.28974   0.00000   0.00000   0.00064   0.00064   2.29038
   A16        2.28974   0.00000   0.00000   0.00064   0.00064   2.29038
   A17        1.71649   0.00000   0.00000   0.00025   0.00025   1.71674
   A18        1.93153   0.00000   0.00000   0.00061   0.00061   1.93214
   A19        2.28974   0.00000   0.00000   0.00064   0.00064   2.29038
   A20        1.93153   0.00000   0.00000   0.00061   0.00061   1.93214
   A21        2.28974   0.00000   0.00000   0.00064   0.00064   2.29038
   A22        1.71649   0.00000   0.00000   0.00025   0.00025   1.71674
    D1        0.00000   0.00000   0.00000   0.00000   0.00000   0.00000
    D2        0.91405   0.00000   0.00000   0.00023   0.00023   0.91428
    D3        0.91405   0.00000   0.00000   0.00023   0.00023   0.91428
    D4        1.82810   0.00000   0.00000   0.00045   0.00045   1.82855
    D5        0.00000   0.00000   0.00000   0.00000   0.00000   0.00000
    D6       -0.73329   0.00000   0.00000   0.00029   0.00029  -0.73300
    D7       -1.96301   0.00000   0.00000   0.00000   0.00000  -1.96301
    D8        0.00000   0.00000   0.00000   0.00000   0.00000   0.00000
    D9       -0.73329   0.00000   0.00000   0.00029   0.00029  -0.73300
   D10       -1.96301   0.00000   0.00000   0.00000   0.00000  -1.96301
   D11        0.00000   0.00000   0.00000   0.00000   0.00000   0.00000
   D12       -0.91405   0.00000   0.00000  -0.00023  -0.00023  -0.91428
   D13       -0.91405   0.00000   0.00000  -0.00023  -0.00023  -0.91428
   D14       -1.82810   0.00000   0.00000  -0.00045  -0.00045  -1.82855
   D15        0.73329   0.00000   0.00000  -0.00029  -0.00029   0.73300
   D16        1.96301   0.00000   0.00000   0.00000   0.00000   1.96301
   D17        0.73329   0.00000   0.00000  -0.00029  -0.00029   0.73300
   D18        1.96301   0.00000   0.00000   0.00000   0.00000   1.96301
   D19        3.14159   0.00000   0.00000   0.00000   0.00000   3.14159
         Item               Value     Threshold  Converged?
 Maximum Force            0.000012     0.000450     YES
 RMS     Force            0.000003     0.000300     YES
 Maximum Displacement     0.001326     0.001800     YES
 RMS     Displacement     0.000546     0.001200     YES
 Predicted change in Energy=-6.235032D-08
 Optimization completed.
    -- Stationary point found.
                           ----------------------------
                           !   Optimized Parameters   !
                           ! (Angstroms and Degrees)  !
 --------------------------                            --------------------------
 ! Name  Definition              Value          Derivative Info.                !
 --------------------------------------------------------------------------------
 ! R1    R(1,2)                  2.8447         -DE/DX =    0.0                 !
 ! R2    R(1,3)                  2.917          -DE/DX =    0.0                 !
 ! R3    R(1,5)                  2.5324         -DE/DX =    0.0                 !
 ! R4    R(1,6)                  2.4208         -DE/DX =    0.0                 !
 ! R5    R(1,7)                  2.4918         -DE/DX =    0.0                 !
 ! R6    R(2,4)                  2.917          -DE/DX =    0.0                 !
 ! R7    R(2,5)                  2.4208         -DE/DX =    0.0                 !
 ! R8    R(2,6)                  2.5324         -DE/DX =    0.0                 !
 ! R9    R(2,8)                  2.4918         -DE/DX =    0.0                 !
 ! R10   R(3,4)                  2.8447         -DE/DX =    0.0                 !
 ! R11   R(3,5)                  2.5324         -DE/DX =    0.0                 !
 ! R12   R(3,6)                  2.4208         -DE/DX =    0.0                 !
 ! R13   R(3,7)                  2.4918         -DE/DX =    0.0                 !
 ! R14   R(4,5)                  2.4208         -DE/DX =    0.0                 !
 ! R15   R(4,6)                  2.5324         -DE/DX =    0.0                 !
 ! R16   R(4,8)                  2.4918         -DE/DX =    0.0                 !
 ! R17   R(5,6)                  2.8188         -DE/DX =    0.0                 !
 ! R18   R(5,7)                  2.2807         -DE/DX =    0.0                 !
 ! R19   R(6,8)                  2.2807         -DE/DX =    0.0                 !
 ! A1    A(2,1,3)               90.0            -DE/DX =    0.0                 !
 ! A2    A(2,1,7)              106.5264         -DE/DX =    0.0                 !
 ! A3    A(6,1,7)              104.127          -DE/DX =    0.0                 !
 ! A4    A(1,2,4)               90.0            -DE/DX =    0.0                 !
 ! A5    A(1,2,8)              106.5264         -DE/DX =    0.0                 !
 ! A6    A(5,2,8)              104.127          -DE/DX =    0.0                 !
 ! A7    A(1,3,4)               90.0            -DE/DX =    0.0                 !
 ! A8    A(4,3,7)              106.5264         -DE/DX =    0.0                 !
 ! A9    A(6,3,7)              104.127          -DE/DX =    0.0                 !
 ! A10   A(2,4,3)               90.0            -DE/DX =    0.0                 !
 ! A11   A(3,4,8)              106.5264         -DE/DX =    0.0                 !
 ! A12   A(5,4,8)              104.127          -DE/DX =    0.0                 !
 ! A13   A(1,5,4)              110.6687         -DE/DX =    0.0                 !
 ! A14   A(2,5,3)              110.6687         -DE/DX =    0.0                 !
 ! A15   A(2,5,7)              131.1923         -DE/DX =    0.0                 !
 ! A16   A(4,5,7)              131.1923         -DE/DX =    0.0                 !
 ! A17   A(6,5,7)               98.3476         -DE/DX =    0.0                 !
 ! A18   A(1,6,4)              110.6687         -DE/DX =    0.0                 !
 ! A19   A(1,6,8)              131.1923         -DE/DX =    0.0                 !
 ! A20   A(2,6,3)              110.6687         -DE/DX =    0.0                 !
 ! A21   A(3,6,8)              131.1923         -DE/DX =    0.0                 !
 ! A22   A(5,6,8)               98.3476         -DE/DX =    0.0                 !
 ! D1    D(3,1,2,4)              0.0            -DE/DX =    0.0                 !
 ! D2    D(3,1,2,8)             52.3712         -DE/DX =    0.0                 !
 ! D3    D(7,1,2,4)             52.3712         -DE/DX =    0.0                 !
 ! D4    D(7,1,2,8)            104.7424         -DE/DX =    0.0                 !
 ! D5    D(2,1,3,4)              0.0            -DE/DX =    0.0                 !
 ! D6    D(7,1,6,4)            -42.0143         -DE/DX =    0.0                 !
 ! D7    D(7,1,6,8)           -112.4721         -DE/DX =    0.0                 !
 ! D8    D(1,2,4,3)              0.0            -DE/DX =    0.0                 !
 ! D9    D(8,2,5,3)            -42.0143         -DE/DX =    0.0                 !
 ! D10   D(8,2,5,7)           -112.4721         -DE/DX =    0.0                 !
 ! D11   D(1,3,4,2)              0.0            -DE/DX =    0.0                 !
 ! D12   D(1,3,4,8)            -52.3712         -DE/DX =    0.0                 !
 ! D13   D(7,3,4,2)            -52.3712         -DE/DX =    0.0                 !
 ! D14   D(7,3,4,8)           -104.7424         -DE/DX =    0.0                 !
 ! D15   D(7,3,6,2)             42.0143         -DE/DX =    0.0                 !
 ! D16   D(7,3,6,8)            112.4721         -DE/DX =    0.0                 !
 ! D17   D(8,4,5,1)             42.0143         -DE/DX =    0.0                 !
 ! D18   D(8,4,5,7)            112.4721         -DE/DX =    0.0                 !
 ! D19   D(7,5,6,8)            180.0            -DE/DX =    0.0                 !
 --------------------------------------------------------------------------------
 GradGradGradGradGradGradGradGradGradGradGradGradGradGradGradGradGradGrad

 1\1\GINC-NODE34\Freq\RB3LYP\6-311+G(d)\Si8\TAM\04-May-2010\0\\#N Geom=
 AllCheck Guess=Read SCRF=Check GenChk RB3LYP/6-311+G(d) Freq\\si8-neu-
 singlet-isomer02\\0,1\Si,-0.7998915036,-1.1761395317,1.4584980116\Si,0
 .7998915036,1.1761395317,1.4584980116\Si,-0.7998915036,-1.1761395317,-
 1.4584980116\Si,0.7998915036,1.1761395317,-1.4584980116\Si,1.217297071
 9,-0.7103922877,0.\Si,-1.2172970719,0.7103922877,0.\Si,0.3659134909,-2
 .8262016582,0.\Si,-0.3659134909,2.8262016582,0.\\Version=AM64L-G03RevE
 .01\State=1-AG\HF=-2316.0422802\RMSD=1.591e-09\RMSF=6.277e-06\ZeroPoin
 t=0.0112756\Thermal=0.0226341\Dipole=0.,0.,0.\DipoleDeriv=-0.0035607,0
 .0027892,-0.1425508,0.0762669,-0.0813005,-0.0918829,-0.1199886,-0.0196
 523,0.1241862,-0.0035607,0.0027892,0.1425508,0.0762669,-0.0813005,0.09
 18829,0.1199886,0.0196523,0.1241862,-0.0035607,0.0027892,0.1425508,0.0
 762669,-0.0813005,0.0918829,0.1199886,0.0196523,0.1241862,-0.0035607,0
 .0027892,-0.1425508,0.0762669,-0.0813005,-0.0918829,-0.1199886,-0.0196
 523,0.1241862,-0.058671,0.0081435,0.,-0.1554295,-0.1985331,0.,0.,0.,-0
 .2052236,-0.058671,0.0081435,0.,-0.1554295,-0.1985331,0.,0.,0.,-0.2052
 236,0.0657923,-0.0137219,0.,0.0028956,0.3611341,0.,0.,0.,-0.0431489,0.
 0657923,-0.0137219,0.,0.0028956,0.3611341,0.,0.,0.,-0.0431489\Polar=19
 5.582575,1.8238517,331.719531,0.,0.,228.4066973\PG=C02H [SGH(Si4),X(Si
 4)]\NImag=0\\0.04077912,-0.00929769,0.05870195,-0.02711710,-0.01893982
 ,0.06837501,-0.00333137,0.00383369,0.00107327,0.04077912,0.00383369,-0
 .00574085,-0.00073587,-0.00929769,0.05870195,-0.00107327,0.00073587,0.
 00139412,0.02711710,0.01893982,0.06837501,0.00005522,-0.00684027,0.003
 95026,-0.00248847,-0.00339196,-0.00428585,0.04077912,-0.00684027,0.005
 72195,0.00105473,-0.00339196,-0.00674390,-0.00667036,-0.00929769,0.058
 70195,-0.00395026,-0.00105473,-0.01172147,-0.00428585,-0.00667036,-0.0
 0788328,0.02711710,0.01893982,0.06837501,-0.00248847,-0.00339196,0.004
 28585,0.00005522,-0.00684027,-0.00395026,-0.00333137,0.00383369,-0.001
 07327,0.04077912,-0.00339196,-0.00674390,0.00667036,-0.00684027,0.0057
 2195,-0.00105473,0.00383369,-0.00574085,0.00073587,-0.00929769,0.05870
 195,0.00428585,0.00667036,-0.00788328,0.00395026,0.00105473,-0.0117214
 7,0.00107327,-0.00073587,0.00139412,-0.02711710,-0.01893982,0.06837501
 ,-0.02424934,-0.00215453,0.01392832,0.00243337,0.00501983,0.00033521,-
 0.02424934,-0.00215453,-0.01392832,0.00243337,0.00501983,-0.00033521,0
 .07988535,-0.00087484,0.00844353,0.00789628,0.00473374,-0.03970337,-0.
 01756471,-0.00087484,0.00844353,-0.00789628,0.00473374,-0.03970337,0.0
 1756471,0.02271446,0.15688277,0.02243284,0.00910984,-0.01548855,0.0011
 0146,-0.01692783,-0.02000212,-0.02243284,-0.00910984,-0.01548855,-0.00
 110146,0.01692783,-0.02000212,0.,0.,0.06813625,0.00243337,0.00501983,-
 0.00033521,-0.02424934,-0.00215453,-0.01392832,0.00243337,0.00501983,0
 .00033521,-0.02424934,-0.00215453,0.01392832,-0.02273927,-0.00069762,0
 .,0.07988534,0.00473374,-0.03970337,0.01756471,-0.00087484,0.00844353,
 -0.00789628,0.00473374,-0.03970337,-0.01756471,-0.00087484,0.00844353,
 0.00789628,-0.00069762,0.00337304,0.,0.02271446,0.15688277,-0.00110146
 ,0.01692783,-0.02000212,-0.02243284,-0.00910984,-0.01548855,0.00110146
 ,-0.01692783,-0.02000212,0.02243284,0.00910984,-0.01548855,0.,0.,0.002
 52774,0.,0.,0.06813625,-0.01444054,0.01277948,0.00548300,0.00124202,0.
 00005145,0.00126840,-0.01444054,0.01277948,-0.00548300,0.00124202,0.00
 005145,-0.00126840,-0.01417577,-0.03020363,0.,0.00066163,0.00046898,0.
 ,0.03853835,0.00875658,-0.02177250,-0.01082845,0.00308074,0.00109320,0
 .00268194,0.00875658,-0.02177250,0.01082845,0.00308074,0.00109320,-0.0
 0268194,-0.02487809,-0.08616757,0.,-0.00286936,-0.01156854,0.,0.002218
 35,0.14528635,0.00617706,-0.01399165,-0.01396255,-0.00034635,-0.000542
 31,-0.00071116,-0.00617706,0.01399165,-0.01396255,0.00034635,0.0005423
 1,-0.00071116,0.,0.,-0.00592607,0.,0.,0.00624343,0.,0.,0.02906114,0.00
 124202,0.00005145,-0.00126840,-0.01444054,0.01277948,-0.00548300,0.001
 24202,0.00005145,0.00126840,-0.01444054,0.01277948,0.00548300,0.000661
 63,0.00046898,0.,-0.01417577,-0.03020363,0.,0.00137284,0.00185444,0.,0
 .03853835,0.00308074,0.00109320,-0.00268194,0.00875658,-0.02177250,0.0
 1082845,0.00308074,0.00109320,0.00268194,0.00875658,-0.02177250,-0.010
 82845,-0.00286936,-0.01156854,0.,-0.02487809,-0.08616757,0.,0.00185444
 ,-0.00619164,0.,0.00221835,0.14528635,0.00034635,0.00054231,-0.0007111
 6,-0.00617706,0.01399165,-0.01396255,-0.00034635,-0.00054231,-0.000711
 16,0.00617706,-0.01399165,-0.01396255,0.,0.,0.00624343,0.,0.,-0.005926
 07,0.,0.,-0.00003109,0.,0.,0.02906114\\0.00000995,0.00001067,0.0000031
 8,-0.00000995,-0.00001067,0.00000318,0.00000995,0.00001067,-0.00000318
 ,-0.00000995,-0.00001067,-0.00000318,0.00000396,-0.00000141,0.,-0.0000
 0396,0.00000141,0.,-0.00000046,0.00000297,0.,0.00000046,-0.00000297,0.
 \\\@


 LORD, MAN... WERE YE BUT WHYLES WHERE I AM, 
 THE GENTILES YE WAD NE'ER ENVY 'EM.         
 IT'S TRUE, THEY NEEDNA STARVE OR SWEAT,     
 THRO' WINTER'S CAULD OR SIMMER'S HEAT...    
 THEY'VE NAE SAIR WARK TO CRAZE THEIR BANES, 
 AND FILL AULD AGE WITH GRIPS AN' GRANES...  
                                             
 BUT HUMAN BODIES ARE SIC FOOLS              
 FOR A' THEIR COLLEGES AND SCHOOLS,          
 THAT WHEN NAE REAL ILLS PERPLEX THEM,       
 THEY MAK ENOW THEMSELVES TO VEX THEM,       
 AN' AYE THE LESS THEY HAE TO STURT THEM,    
 IN LIKE PROPORTION LESS WILL HURT THEM....  
                                             
                (ROBERT BURNS 'THE TWA DOGS')
 Job cpu time:  0 days  0 hours 14 minutes 47.5 seconds.
 File lengths (MBytes):  RWF=     74 Int=      0 D2E=      0 Chk=     10 Scr=      1
 Normal termination of Gaussian 03 at Tue May  4 16:57:19 2010.
