 Entering Gaussian System, Link 0=g03
 Initial command:
 /usr/local/chem/g03E01/l1.exe /temp0/tam/Gau-13873.inp -scrdir=/temp0/tam/
 Entering Link 1 = /usr/local/chem/g03E01/l1.exe PID=     13874.
  
 Copyright (c) 1988,1990,1992,1993,1995,1998,2003,2004,2007, Gaussian, Inc.
                  All Rights Reserved.
  
 This is the Gaussian(R) 03 program.  It is based on the
 the Gaussian(R) 98 system (copyright 1998, Gaussian, Inc.),
 the Gaussian(R) 94 system (copyright 1995, Gaussian, Inc.),
 the Gaussian 92(TM) system (copyright 1992, Gaussian, Inc.),
 the Gaussian 90(TM) system (copyright 1990, Gaussian, Inc.),
 the Gaussian 88(TM) system (copyright 1988, Gaussian, Inc.),
 the Gaussian 86(TM) system (copyright 1986, Carnegie Mellon
 University), and the Gaussian 82(TM) system (copyright 1983,
 Carnegie Mellon University). Gaussian is a federally registered
 trademark of Gaussian, Inc.
  
 This software contains proprietary and confidential information,
 including trade secrets, belonging to Gaussian, Inc.
  
 This software is provided under written license and may be
 used, copied, transmitted, or stored only in accord with that
 written license.
  
 The following legend is applicable only to US Government
 contracts under FAR:
  
                    RESTRICTED RIGHTS LEGEND
  
 Use, reproduction and disclosure by the US Government is
 subject to restrictions as set forth in subparagraphs (a)
 and (c) of the Commercial Computer Software - Restricted
 Rights clause in FAR 52.227-19.
  
 Gaussian, Inc.
 340 Quinnipiac St., Bldg. 40, Wallingford CT 06492
  
  
 ---------------------------------------------------------------
 Warning -- This program may not be used in any manner that
 competes with the business of Gaussian, Inc. or will provide
 assistance to any competitor of Gaussian, Inc.  The licensee
 of this program is prohibited from giving any competitor of
 Gaussian, Inc. access to this program.  By using this program,
 the user acknowledges that Gaussian, Inc. is engaged in the
 business of creating and licensing software in the field of
 computational chemistry and represents and warrants to the
 licensee that it is not a competitor of Gaussian, Inc. and that
 it will not use this program in any manner prohibited above.
 ---------------------------------------------------------------
  

 Cite this work as:
 Gaussian 03, Revision E.01,
 M. J. Frisch, G. W. Trucks, H. B. Schlegel, G. E. Scuseria, 
 M. A. Robb, J. R. Cheeseman, J. A. Montgomery, Jr., T. Vreven, 
 K. N. Kudin, J. C. Burant, J. M. Millam, S. S. Iyengar, J. Tomasi, 
 V. Barone, B. Mennucci, M. Cossi, G. Scalmani, N. Rega, 
 G. A. Petersson, H. Nakatsuji, M. Hada, M. Ehara, K. Toyota, 
 R. Fukuda, J. Hasegawa, M. Ishida, T. Nakajima, Y. Honda, O. Kitao, 
 H. Nakai, M. Klene, X. Li, J. E. Knox, H. P. Hratchian, J. B. Cross, 
 V. Bakken, C. Adamo, J. Jaramillo, R. Gomperts, R. E. Stratmann, 
 O. Yazyev, A. J. Austin, R. Cammi, C. Pomelli, J. W. Ochterski, 
 P. Y. Ayala, K. Morokuma, G. A. Voth, P. Salvador, J. J. Dannenberg, 
 V. G. Zakrzewski, S. Dapprich, A. D. Daniels, M. C. Strain, 
 O. Farkas, D. K. Malick, A. D. Rabuck, K. Raghavachari, 
 J. B. Foresman, J. V. Ortiz, Q. Cui, A. G. Baboul, S. Clifford, 
 J. Cioslowski, B. B. Stefanov, G. Liu, A. Liashenko, P. Piskorz, 
 I. Komaromi, R. L. Martin, D. J. Fox, T. Keith, M. A. Al-Laham, 
 C. Y. Peng, A. Nanayakkara, M. Challacombe, P. M. W. Gill, 
 B. Johnson, W. Chen, M. W. Wong, C. Gonzalez, and J. A. Pople, 
 Gaussian, Inc., Wallingford CT, 2004.
 
 ******************************************
 Gaussian 03:  AM64L-G03RevE.01 11-Sep-2007
                17-Jun-2011 
 ******************************************
 %NprocShared=4
 Will use up to    4 processors via shared memory.
 %mem=3750MB
 %chk=S9L-ne-d-01
 --------------------------------------
 # hf/6-311G(d) freq scfcyc=500 scf=xqc
 --------------------------------------
 1/10=4,30=1,38=1/1,3;
 2/17=6,18=5,40=1/2;
 3/5=4,6=6,7=1,11=9,16=1,25=1,30=1/1,2,3;
 4//1;
 5/5=2,7=500,8=3,13=1,38=5/2,8;
 8/6=4,10=90,11=11/1;
 10/13=10/2;
 11/6=2,8=1,9=11,15=111,16=1/1,2,10;
 10/6=1/2;
 6/7=2,8=2,9=2,10=2,18=1,28=1/1;
 7/8=1,10=1,25=1/1,2,3,16;
 1/10=4,30=1/3;
 99//99;
 -----
 si8-c
 -----
 Symbolic Z-matrix:
 Charge =  1 Multiplicity = 2
 Si                    0.        0.       -2.55691 
 Si                    1.34312   0.       -0.51256 
 Si                    0.       -1.23702   1.20814 
 Si                    0.        1.23702   1.20814 
 Si                    0.        0.        3.29565 
 Si                    0.        2.10553  -1.06472 
 Si                   -1.34312   0.       -0.51256 
 Si                    0.       -2.10553  -1.06472 
 

 GradGradGradGradGradGradGradGradGradGradGradGradGradGradGradGradGradGrad
 Berny optimization.
 Initialization pass.
 Trust Radius=3.00D-01 FncErr=1.00D-07 GrdErr=1.00D-07
 Number of steps in this run=   2 maximum allowed number of steps=   2.
 GradGradGradGradGradGradGradGradGradGradGradGradGradGradGradGradGradGrad

                          Input orientation:                          
 ---------------------------------------------------------------------
 Center     Atomic     Atomic              Coordinates (Angstroms)
 Number     Number      Type              X           Y           Z
 ---------------------------------------------------------------------
    1         14             0        0.000000    0.000000   -2.556909
    2         14             0        1.343115    0.000000   -0.512564
    3         14             0        0.000000   -1.237018    1.208140
    4         14             0        0.000000    1.237018    1.208140
    5         14             0        0.000000    0.000000    3.295646
    6         14             0        0.000000    2.105530   -1.064716
    7         14             0       -1.343115    0.000000   -0.512564
    8         14             0        0.000000   -2.105530   -1.064716
 ---------------------------------------------------------------------
                    Distance matrix (angstroms):
                    1          2          3          4          5
     1  Si   0.000000
     2  Si   2.446080   0.000000
     3  Si   3.963055   2.508983   0.000000
     4  Si   3.963055   2.508983   2.474036   0.000000
     5  Si   5.852555   4.038121   2.426498   2.426498   0.000000
     6  Si   2.580678   2.557750   4.042091   2.433144   4.842108
     7  Si   2.446080   2.686230   2.508983   2.508983   4.038121
     8  Si   2.580678   2.557750   2.433144   4.042091   4.842108
                    6          7          8
     6  Si   0.000000
     7  Si   2.557750   0.000000
     8  Si   4.211060   2.557750   0.000000
 Stoichiometry    Si8(1+,2)
 Framework group  C2V[C2(SiSi),SGV(Si4),SGV'(Si2)]
 Deg. of freedom     7
 Full point group                 C2V
 Largest Abelian subgroup         C2V     NOp   4
 Largest concise Abelian subgroup C2V     NOp   4
                         Standard orientation:                         
 ---------------------------------------------------------------------
 Center     Atomic     Atomic              Coordinates (Angstroms)
 Number     Number      Type              X           Y           Z
 ---------------------------------------------------------------------
    1         14             0        0.000000    0.000000   -2.556966
    2         14             0       -1.343115    0.000000   -0.512621
    3         14             0        0.000000    1.237018    1.208083
    4         14             0        0.000000   -1.237018    1.208083
    5         14             0        0.000000    0.000000    3.295589
    6         14             0        0.000000   -2.105530   -1.064773
    7         14             0        1.343115    0.000000   -0.512621
    8         14             0        0.000000    2.105530   -1.064773
 ---------------------------------------------------------------------
 Rotational constants (GHZ):      1.1628131      0.6760815      0.5155599
 Standard basis: 6-311G(d) (5D, 7F)
 There are    83 symmetry adapted basis functions of A1  symmetry.
 There are    23 symmetry adapted basis functions of A2  symmetry.
 There are    45 symmetry adapted basis functions of B1  symmetry.
 There are    57 symmetry adapted basis functions of B2  symmetry.
 Integral buffers will be    131072 words long.
 Raffenetti 2 integral format.
 Two-electron integral symmetry is turned on.
   208 basis functions,   368 primitive gaussians,   216 cartesian basis functions
    56 alpha electrons       55 beta electrons
       nuclear repulsion energy       984.2457419310 Hartrees.
 NAtoms=    8 NActive=    8 NUniq=    5 SFac= 1.92D+00 NAtFMM=   80 NAOKFM=F Big=F
 One-electron integrals computed using PRISM.
 NBasis=   208 RedAO= T  NBF=    83    23    45    57
 NBsUse=   208 1.00D-06 NBFU=    83    23    45    57
 Harris functional with IExCor=  205 diagonalized for initial guess.
 ExpMin= 6.54D-02 ExpMax= 6.94D+04 ExpMxC= 2.33D+03 IAcc=2 IRadAn=         4 AccDes= 0.00D+00
 HarFok:  IExCor= 205 AccDes= 0.00D+00 IRadAn=         4 IDoV=1
 ScaDFX=  1.000000  1.000000  1.000000  1.000000
 Initial guess orbital symmetries:
 Alpha Orbitals:
       Occupied  (A1) (B2) (A1) (B1) (A1) (B2) (A1) (A1) (A1) (B2)
                 (A1) (B1) (A1) (B2) (A1) (A1) (A1) (B2) (A1) (B2)
                 (A1) (B1) (B1) (A1) (A2) (B2) (B1) (A2) (A1) (B2)
                 (A1) (B2) (B1) (A1) (B2) (B1) (A2) (A1) (B2) (B1)
                 (A1) (A1) (B2) (A1) (B1) (B2) (A1) (A1) (B1) (A2)
                 (B2) (A1) (A1) (B2) (A1) (B1)
       Virtual   (B1) (B2) (A2) (A1) (B1) (A1) (B2) (A1) (B1) (B2)
                 (A1) (A2) (B2) (B1) (B2) (A1) (B2) (A1) (A1) (B1)
                 (A2) (A1) (B2) (A1) (B1) (A1) (B2) (A1) (A2) (B2)
                 (B1) (B1) (A1) (B2) (B1) (A1) (A2) (B2) (B1) (A1)
                 (B2) (A2) (B1) (A1) (B2) (A1) (B1) (B2) (A1) (A2)
                 (B1) (B1) (A1) (B2) (B2) (A1) (A1) (B2) (A2) (A1)
                 (A1) (A1) (A2) (B2) (B1) (A2) (A1) (A1) (B1) (A2)
                 (B2) (A1) (B1) (B2) (A1) (A2) (B1) (B2) (A1) (A1)
                 (A2) (B1) (B2) (A1) (B2) (B1) (A1) (B2) (B1) (A2)
                 (B1) (B2) (B1) (B2) (A2) (A1) (B1) (B2) (A1) (A1)
                 (A1) (B2) (A1) (A2) (B2) (B1) (A1) (B2) (A1) (A1)
                 (B2) (B1) (A1) (A1) (B2) (B1) (A1) (B2) (A1) (A1)
                 (B1) (A1) (B2) (A2) (B2) (B1) (A2) (B1) (A1) (B2)
                 (B1) (A1) (B2) (A1) (B2) (A1) (B1) (A2) (B2) (B1)
                 (A1) (A1) (B2) (A1) (A1) (A1) (B2) (B1) (A1) (B2)
                 (A1) (A1)
 Beta  Orbitals:
       Occupied  (A1) (B2) (A1) (B1) (A1) (B2) (A1) (A1) (A1) (B2)
                 (A1) (B1) (A1) (B2) (A1) (A1) (A1) (B2) (A1) (B2)
                 (A1) (B1) (B1) (A1) (A2) (B2) (B1) (A2) (A1) (B2)
                 (A1) (B2) (B1) (A1) (B2) (B1) (A2) (A1) (B2) (B1)
                 (A1) (A1) (B2) (A1) (B1) (B2) (A1) (A1) (B1) (A2)
                 (B2) (A1) (A1) (B2) (A1)
       Virtual   (B1) (B1) (B2) (A2) (A1) (B1) (A1) (B2) (A1) (B1)
                 (B2) (A1) (A2) (B2) (B1) (B2) (A1) (B2) (A1) (A1)
                 (B1) (A2) (A1) (B2) (A1) (B1) (A1) (B2) (A1) (A2)
                 (B2) (B1) (B1) (A1) (B2) (B1) (A1) (A2) (B2) (B1)
                 (A1) (B2) (A2) (B1) (A1) (B2) (A1) (B1) (B2) (A1)
                 (A2) (B1) (B1) (A1) (B2) (B2) (A1) (A1) (B2) (A2)
                 (A1) (A1) (A1) (A2) (B2) (B1) (A2) (A1) (A1) (B1)
                 (A2) (B2) (A1) (B1) (B2) (A1) (A2) (B1) (B2) (A1)
                 (A1) (A2) (B1) (B2) (A1) (B2) (B1) (A1) (B2) (B1)
                 (A2) (B1) (B2) (B1) (B2) (A2) (A1) (B1) (B2) (A1)
                 (A1) (A1) (B2) (A1) (A2) (B2) (B1) (A1) (B2) (A1)
                 (A1) (B2) (B1) (A1) (A1) (B2) (B1) (A1) (B2) (A1)
                 (A1) (B1) (A1) (B2) (A2) (B2) (B1) (A2) (B1) (A1)
                 (B2) (B1) (A1) (B2) (A1) (B2) (A1) (B1) (A2) (B2)
                 (B1) (A1) (A1) (B2) (A1) (A1) (A1) (B2) (B1) (A1)
                 (B2) (A1) (A1)
 The electronic state of the initial guess is 2-B1.
 <S**2> of initial guess= 0.7500
 Requested convergence on RMS density matrix=1.00D-08 within 128 cycles.
 Requested convergence on MAX density matrix=1.00D-06.
 Requested convergence on             energy=1.00D-06.
 No special actions if energy rises.
 Integral accuracy reduced to 1.0D-05 until final iterations.
 Initial convergence to 1.0D-05 achieved.  Increase integral accuracy.
 SCF Done:  E(UHF) =  -2311.07291586     A.U. after   25 cycles
             Convg  =    0.7794D-08             -V/T =  2.0000
             S**2   =   0.7917
 Annihilation of the first spin contaminant:
 S**2 before annihilation     0.7917,   after     0.7513
 QCSCF skips out because SCF is already converged.
 Range of M.O.s used for correlation:     1   208
 NBasis=   208 NAE=    56 NBE=    55 NFC=     0 NFV=     0
 NROrb=    208 NOA=    56 NOB=    55 NVA=   152 NVB=   153
          Differentiating once with respect to electric field.
                with respect to dipole field.
          Electric field/nuclear overlap derivatives assumed to be zero.
 Integrals replicated using symmetry in FoFDir.
 MinBra= 0 MaxBra= 2 Meth= 1.
 IRaf=       0 NMat=   3 IRICut=       1 DoRegI=T DoRafI=F ISym2E= 2 JSym2E=2.
          There are   3 degrees of freedom in the 1st order CPHF.
     3 vectors were produced by pass  0.
 AX will form   3 AO Fock derivatives at one time.
     3 vectors were produced by pass  1.
     3 vectors were produced by pass  2.
     3 vectors were produced by pass  3.
     3 vectors were produced by pass  4.
     3 vectors were produced by pass  5.
     3 vectors were produced by pass  6.
     3 vectors were produced by pass  7.
     3 vectors were produced by pass  8.
     3 vectors were produced by pass  9.
     3 vectors were produced by pass 10.
     3 vectors were produced by pass 11.
     3 vectors were produced by pass 12.
     3 vectors were produced by pass 13.
     3 vectors were produced by pass 14.
     2 vectors were produced by pass 15.
     1 vectors were produced by pass 16.
 Inv2:  IOpt= 1 Iter= 1 AM= 2.50D-15 Conv= 1.00D-12.
 Inverted reduced A of dimension   48 with in-core refinement.
 End of Minotr Frequency-dependent properties file   721 does not exist.
 Symmetrizing basis deriv contribution to polar:
 IMax=3 JMax=2 DiffMx= 0.00D+00
 G2DrvN: will do    9 centers at a time, making    1 passes doing MaxLOS=2.
 FoFDir/FoFCou used for L=0 through L=2.
 DoAtom=TTTTTTTT
          Differentiating once with respect to electric field.
                with respect to dipole field.
          Differentiating once with respect to nuclear coordinates.
 Integrals replicated using symmetry in FoFDir.
 MinBra= 0 MaxBra= 2 Meth= 1.
 IRaf=       0 NMat=  18 IRICut=      18 DoRegI=T DoRafI=T ISym2E= 2 JSym2E=2.
          There are  18 degrees of freedom in the 1st order CPHF.
    18 vectors were produced by pass  0.
 AX will form  18 AO Fock derivatives at one time.
    18 vectors were produced by pass  1.
    18 vectors were produced by pass  2.
    18 vectors were produced by pass  3.
    18 vectors were produced by pass  4.
    18 vectors were produced by pass  5.
    18 vectors were produced by pass  6.
    18 vectors were produced by pass  7.
    18 vectors were produced by pass  8.
    18 vectors were produced by pass  9.
     6 vectors were produced by pass 10.
     3 vectors were produced by pass 11.
     3 vectors were produced by pass 12.
 Inv2:  IOpt= 1 Iter= 1 AM= 8.56D-15 Conv= 1.00D-12.
 Inverted reduced A of dimension  192 with in-core refinement.
 Isotropic polarizability for W=    0.000000      229.00 Bohr**3.
 End of Minotr Frequency-dependent properties file   721 does not exist.

 **********************************************************************

            Population analysis using the SCF density.

 **********************************************************************

 Orbital symmetries:
 Alpha Orbitals:
       Occupied  (B2) (A1) (A1) (B2) (A1) (A1) (B1) (A1) (B2) (A1)
                 (A1) (B2) (A1) (A1) (B1) (A1) (A1) (B2) (B1) (A2)
                 (A1) (B2) (A1) (B2) (B1) (A2) (A1) (B2) (B1) (A1)
                 (B2) (A1) (B1) (B2) (A2) (A1) (B1) (B1) (B2) (A1)
                 (A1) (A1) (B2) (A1) (B1) (A1) (B2) (A1) (B1) (A2)
                 (B2) (A1) (A1) (B2) (A1) (B1)
       Virtual   (B1) (B2) (A2) (A1) (B1) (A1) (B2) (B1) (A1) (B2)
                 (A1) (A2) (B2) (B1) (A1) (B2) (A1) (B2) (A1) (B1)
                 (A2) (A1) (A1) (B2) (B1) (A1) (B1) (B2) (A2) (B1)
                 (A1) (A1) (B2) (B1) (B2) (A2) (B2) (A1) (B1) (B2)
                 (A1) (B2) (A1) (A2) (B1) (A1) (B1) (A1) (B2) (A1)
                 (A2) (B2) (B1) (A1) (B1) (B2) (A1) (B2) (A1) (A2)
                 (A1) (A2) (A1) (B1) (B2) (A2) (A1) (A1) (B1) (A2)
                 (A1) (B2) (B1) (A1) (B1) (B2) (A1) (B2) (A2) (A1)
                 (B1) (B2) (A2) (B2) (A1) (B1) (A1) (B2) (B1) (A2)
                 (B1) (B2) (B1) (A2) (B2) (B1) (A1) (B2) (A1) (A1)
                 (A1) (B2) (B2) (A2) (A1) (B1) (B2) (A1) (A1) (A1)
                 (B2) (B1) (A1) (A1) (B2) (B1) (B2) (A1) (A1) (A1)
                 (B1) (A1) (A2) (B2) (B1) (B2) (A2) (B1) (A1) (B2)
                 (B1) (B2) (A1) (A1) (B2) (A1) (B1) (A2) (B2) (B1)
                 (A1) (A1) (B2) (A1) (A1) (A1) (B2) (B1) (A1) (B2)
                 (A1) (A1)
 Beta  Orbitals:
       Occupied  (B2) (A1) (A1) (B2) (A1) (A1) (B1) (A1) (B2) (A1)
                 (A1) (B2) (A1) (A1) (B1) (A1) (A1) (B2) (B1) (A2)
                 (A1) (B2) (A1) (B1) (A2) (B2) (A1) (B2) (A1) (B2)
                 (B1) (A1) (B1) (B2) (A2) (A1) (B1) (A1) (B2) (B1)
                 (A1) (A1) (B2) (B1) (A1) (B2) (A1) (A1) (B1) (A2)
                 (B2) (A1) (B2) (A1) (A1)
       Virtual   (B1) (B2) (B1) (A2) (A1) (B1) (A1) (B2) (A1) (B2)
                 (B1) (A1) (A2) (B2) (B1) (A1) (B2) (A1) (B2) (A1)
                 (A2) (B1) (A1) (A1) (B2) (B1) (A1) (B2) (A2) (B1)
                 (A1) (B1) (A1) (B2) (B1) (B2) (A2) (B2) (B1) (A1)
                 (B2) (A1) (B2) (A1) (A2) (B1) (A1) (B1) (B2) (A1)
                 (A1) (A2) (B2) (A1) (B1) (B2) (B1) (A1) (B2) (A1)
                 (A2) (A1) (A1) (A2) (B1) (B2) (A2) (A1) (A1) (A2)
                 (B1) (A1) (B2) (B1) (A1) (B1) (B2) (A1) (B2) (A2)
                 (A1) (B1) (B2) (A2) (B2) (A1) (B1) (A1) (B2) (B1)
                 (A2) (B1) (B2) (B1) (A2) (B2) (B1) (A1) (B2) (A1)
                 (A1) (A1) (B2) (B2) (A2) (A1) (B1) (B2) (A1) (A1)
                 (A1) (B2) (B1) (A1) (A1) (B2) (B1) (B2) (A1) (A1)
                 (A1) (A1) (B1) (A2) (B2) (B1) (B2) (A2) (B1) (A1)
                 (B2) (B1) (B2) (A1) (A1) (B2) (A1) (B1) (A2) (B2)
                 (B1) (A1) (A1) (B2) (A1) (A1) (A1) (B2) (B1) (B2)
                 (A1) (A1) (A1)
 The electronic state is 2-B1.
 Alpha  occ. eigenvalues --  -68.99075 -68.99075 -68.98335 -68.98335 -68.98147
 Alpha  occ. eigenvalues --  -68.96943 -68.96943 -68.96188  -6.33275  -6.33273
 Alpha  occ. eigenvalues --   -6.32820  -6.32811  -6.32441  -6.31584  -6.31578
 Alpha  occ. eigenvalues --   -6.30458  -4.43356  -4.43355  -4.43344  -4.43344
 Alpha  occ. eigenvalues --   -4.43301  -4.43301  -4.43204  -4.43166  -4.43122
 Alpha  occ. eigenvalues --   -4.43118  -4.43090  -4.43085  -4.42648  -4.42513
 Alpha  occ. eigenvalues --   -4.42474  -4.41997  -4.41985  -4.41844  -4.41843
 Alpha  occ. eigenvalues --   -4.41826  -4.41821  -4.41267  -4.40388  -4.40375
 Alpha  occ. eigenvalues --   -1.07357  -0.92532  -0.88607  -0.78930  -0.77892
 Alpha  occ. eigenvalues --   -0.67724  -0.67600  -0.59451  -0.53976  -0.51232
 Alpha  occ. eigenvalues --   -0.51019  -0.49118  -0.47757  -0.47577  -0.46164
 Alpha  occ. eigenvalues --   -0.42829
 Alpha virt. eigenvalues --   -0.17013  -0.14898  -0.13072  -0.13028  -0.12849
 Alpha virt. eigenvalues --   -0.09521  -0.08125  -0.07753  -0.06368  -0.05792
 Alpha virt. eigenvalues --   -0.04919  -0.01428  -0.01050   0.01140   0.03628
 Alpha virt. eigenvalues --    0.04950   0.05566   0.06833   0.07335   0.09169
 Alpha virt. eigenvalues --    0.09697   0.10538   0.11931   0.12346   0.14032
 Alpha virt. eigenvalues --    0.15212   0.15650   0.16190   0.16910   0.17372
 Alpha virt. eigenvalues --    0.18506   0.20424   0.20921   0.21548   0.22257
 Alpha virt. eigenvalues --    0.24030   0.25185   0.25505   0.25615   0.30000
 Alpha virt. eigenvalues --    0.33984   0.40490   0.41218   0.42088   0.42318
 Alpha virt. eigenvalues --    0.46150   0.48461   0.51276   0.51917   0.54325
 Alpha virt. eigenvalues --    0.54451   0.55354   0.55392   0.55534   0.56408
 Alpha virt. eigenvalues --    0.56718   0.58613   0.60550   0.61022   0.62768
 Alpha virt. eigenvalues --    0.63915   0.65364   0.65924   0.68304   0.69765
 Alpha virt. eigenvalues --    0.71739   0.72140   0.77457   0.78631   0.79002
 Alpha virt. eigenvalues --    0.80334   0.82125   0.84659   0.86456   0.87435
 Alpha virt. eigenvalues --    0.88401   0.88858   0.89447   0.90180   0.91409
 Alpha virt. eigenvalues --    0.92448   0.92928   0.93011   0.95687   0.96400
 Alpha virt. eigenvalues --    0.96682   1.07394   1.09222   1.21382   1.25327
 Alpha virt. eigenvalues --    1.26552   1.29304   1.29861   1.31676   1.32107
 Alpha virt. eigenvalues --    1.34019   1.34309   1.36914   1.38989   1.43309
 Alpha virt. eigenvalues --    1.46634   1.47565   1.50763   1.50822   1.52022
 Alpha virt. eigenvalues --    1.52594   1.55862   1.56304   1.62830   1.64856
 Alpha virt. eigenvalues --    1.67893   1.72934   5.59987   5.68907   5.70074
 Alpha virt. eigenvalues --    5.71795   5.74726   5.75442   5.78691   5.93554
 Alpha virt. eigenvalues --   11.92662  11.93827  11.94174  11.94276  11.94907
 Alpha virt. eigenvalues --   11.95921  11.96489  11.96701  11.98959  11.99053
 Alpha virt. eigenvalues --   11.99176  12.02098  12.02395  12.03709  12.05310
 Alpha virt. eigenvalues --   12.07650  12.08493  12.08654  12.13072  12.16250
 Alpha virt. eigenvalues --   12.21640  12.23941  12.27474  12.32122 143.36145
 Alpha virt. eigenvalues --  143.45003 143.46213 143.50491 143.52891 143.52965
 Alpha virt. eigenvalues --  143.57326 143.76778
  Beta  occ. eigenvalues --  -68.99082 -68.99082 -68.98385 -68.98385 -68.98078
  Beta  occ. eigenvalues --  -68.96890 -68.96890 -68.95726  -6.33284  -6.33282
  Beta  occ. eigenvalues --   -6.32892  -6.32882  -6.32364  -6.31503  -6.31497
  Beta  occ. eigenvalues --   -6.29944  -4.43372  -4.43372  -4.43344  -4.43344
  Beta  occ. eigenvalues --   -4.43320  -4.43320  -4.43258  -4.43232  -4.43228
  Beta  occ. eigenvalues --   -4.43224  -4.43132  -4.43123  -4.42477  -4.42467
  Beta  occ. eigenvalues --   -4.42272  -4.41939  -4.41925  -4.41795  -4.41794
  Beta  occ. eigenvalues --   -4.41722  -4.41719  -4.40192  -4.40057  -4.39052
  Beta  occ. eigenvalues --   -1.07133  -0.90771  -0.88754  -0.77326  -0.75299
  Beta  occ. eigenvalues --   -0.67632  -0.67513  -0.57625  -0.51676  -0.51295
  Beta  occ. eigenvalues --   -0.50378  -0.48439  -0.47601  -0.47544  -0.45728
  Beta virt. eigenvalues --   -0.17650  -0.14256  -0.14203  -0.12975  -0.12890
  Beta virt. eigenvalues --   -0.10382  -0.09275  -0.07959  -0.06188  -0.05773
  Beta virt. eigenvalues --   -0.04973  -0.04696  -0.01157  -0.00780   0.02677
  Beta virt. eigenvalues --    0.04253   0.05105   0.05723   0.06832   0.07576
  Beta virt. eigenvalues --    0.09692   0.09813   0.11168   0.12118   0.12242
  Beta virt. eigenvalues --    0.14615   0.15574   0.16191   0.16914   0.17551
  Beta virt. eigenvalues --    0.18859   0.18981   0.20794   0.20984   0.22562
  Beta virt. eigenvalues --    0.22660   0.24111   0.25354   0.26187   0.26276
  Beta virt. eigenvalues --    0.30157   0.34413   0.40547   0.41360   0.42841
  Beta virt. eigenvalues --    0.42894   0.47244   0.48674   0.52016   0.52035
  Beta virt. eigenvalues --    0.54985   0.55132   0.55381   0.56226   0.56507
  Beta virt. eigenvalues --    0.56607   0.56936   0.59013   0.60556   0.61202
  Beta virt. eigenvalues --    0.62992   0.64196   0.66803   0.68133   0.69215
  Beta virt. eigenvalues --    0.69773   0.72811   0.73457   0.77953   0.79992
  Beta virt. eigenvalues --    0.81023   0.81427   0.82354   0.84812   0.86965
  Beta virt. eigenvalues --    0.87503   0.88407   0.89045   0.89504   0.90294
  Beta virt. eigenvalues --    0.91559   0.92530   0.92932   0.92959   0.95658
  Beta virt. eigenvalues --    0.96549   0.97263   1.07860   1.09439   1.24380
  Beta virt. eigenvalues --    1.25323   1.26872   1.29551   1.30785   1.31628
  Beta virt. eigenvalues --    1.32260   1.34355   1.34443   1.37014   1.39153
  Beta virt. eigenvalues --    1.43597   1.46800   1.47613   1.50791   1.50903
  Beta virt. eigenvalues --    1.52102   1.52781   1.55920   1.56417   1.62880
  Beta virt. eigenvalues --    1.64908   1.67916   1.73019   5.60145   5.68998
  Beta virt. eigenvalues --    5.70006   5.71910   5.74703   5.75915   5.78753
  Beta virt. eigenvalues --    5.93667  11.93867  11.93977  11.94161  11.94302
  Beta virt. eigenvalues --   11.95056  11.96045  11.96421  11.97025  11.98997
  Beta virt. eigenvalues --   11.99108  11.99536  12.02114  12.02473  12.03724
  Beta virt. eigenvalues --   12.05341  12.07631  12.08599  12.08687  12.13069
  Beta virt. eigenvalues --   12.16271  12.21663  12.24000  12.27462  12.32121
  Beta virt. eigenvalues --  143.36208 143.45031 143.46180 143.50539 143.52951
  Beta virt. eigenvalues --  143.53072 143.57313 143.76826
          Condensed to atoms (all electrons):
              1          2          3          4          5          6
     1  Si  13.423071   0.067572  -0.030019  -0.030019   0.001833   0.104971
     2  Si   0.067572  14.068130   0.018782   0.018782  -0.016729   0.069746
     3  Si  -0.030019   0.018782  13.719647  -0.044104   0.114557  -0.014659
     4  Si  -0.030019   0.018782  -0.044104  13.719647   0.114557   0.136517
     5  Si   0.001833  -0.016729   0.114557   0.114557  13.532256   0.001512
     6  Si   0.104971   0.069746  -0.014659   0.136517   0.001512  13.323774
     7  Si   0.067572  -0.107464   0.018782   0.018782  -0.016729   0.069746
     8  Si   0.104971   0.069746   0.136517  -0.014659   0.001512  -0.021037
              7          8
     1  Si   0.067572   0.104971
     2  Si  -0.107464   0.069746
     3  Si   0.018782   0.136517
     4  Si   0.018782  -0.014659
     5  Si  -0.016729   0.001512
     6  Si   0.069746  -0.021037
     7  Si  14.068130   0.069746
     8  Si   0.069746  13.323774
 Mulliken atomic charges:
              1
     1  Si   0.290049
     2  Si  -0.188567
     3  Si   0.080497
     4  Si   0.080497
     5  Si   0.267230
     6  Si   0.329430
     7  Si  -0.188567
     8  Si   0.329430
 Sum of Mulliken charges=   1.00000
 Atomic charges with hydrogens summed into heavy atoms:
              1
     1  Si   0.290049
     2  Si  -0.188567
     3  Si   0.080497
     4  Si   0.080497
     5  Si   0.267230
     6  Si   0.329430
     7  Si  -0.188567
     8  Si   0.329430
 Sum of Mulliken charges=   1.00000
          Atomic-Atomic Spin Densities.
              1          2          3          4          5          6
     1  Si   0.105525   0.017688   0.002248   0.002248  -0.000331  -0.009088
     2  Si   0.017688   0.101137  -0.031172  -0.031172  -0.013295  -0.000540
     3  Si   0.002248  -0.031172   0.021438  -0.000182   0.001931  -0.000018
     4  Si   0.002248  -0.031172  -0.000182   0.021438   0.001931   0.004252
     5  Si  -0.000331  -0.013295   0.001931   0.001931   0.911096  -0.000133
     6  Si  -0.009088  -0.000540  -0.000018   0.004252  -0.000133  -0.005759
     7  Si   0.017688  -0.005673  -0.031172  -0.031172  -0.013295  -0.000540
     8  Si  -0.009088  -0.000540   0.004252  -0.000018  -0.000133   0.000738
              7          8
     1  Si   0.017688  -0.009088
     2  Si  -0.005673  -0.000540
     3  Si  -0.031172   0.004252
     4  Si  -0.031172  -0.000018
     5  Si  -0.013295  -0.000133
     6  Si  -0.000540   0.000738
     7  Si   0.101137  -0.000540
     8  Si  -0.000540  -0.005759
 Mulliken atomic spin densities:
              1
     1  Si   0.126892
     2  Si   0.036432
     3  Si  -0.032676
     4  Si  -0.032676
     5  Si   0.887771
     6  Si  -0.011088
     7  Si   0.036432
     8  Si  -0.011088
 Sum of Mulliken spin densities=   1.00000
 APT atomic charges:
              1
     1  Si   0.358194
     2  Si  -0.297013
     3  Si  -0.009513
     4  Si  -0.009514
     5  Si   0.436662
     6  Si   0.409097
     7  Si  -0.297010
     8  Si   0.409098
 Sum of APT charges=   1.00000
 APT Atomic charges with hydrogens summed into heavy atoms:
              1
     1  Si   0.358194
     2  Si  -0.297013
     3  Si  -0.009513
     4  Si  -0.009514
     5  Si   0.436662
     6  Si   0.409097
     7  Si  -0.297010
     8  Si   0.409098
 Sum of APT charges=   1.00000
 Electronic spatial extent (au):  <R**2>=  2134.7098
 Charge=     1.0000 electrons
 Dipole moment (field-independent basis, Debye):
    X=     0.0000    Y=     0.0000    Z=    -0.4160  Tot=     0.4160
 Quadrupole moment (field-independent basis, Debye-Ang):
   XX=   -96.7268   YY=   -89.3439   ZZ=   -86.4548
   XY=     0.0000   XZ=     0.0000   YZ=     0.0000
 Traceless Quadrupole moment (field-independent basis, Debye-Ang):
   XX=    -5.8849   YY=     1.4979   ZZ=     4.3871
   XY=     0.0000   XZ=     0.0000   YZ=     0.0000
 Octapole moment (field-independent basis, Debye-Ang**2):
  XXX=     0.0000  YYY=     0.0000  ZZZ=     4.0851  XYY=     0.0000
  XXY=     0.0000  XXZ=    -6.1801  XZZ=     0.0000  YZZ=     0.0000
  YYZ=    -0.2997  XYZ=     0.0000
 Hexadecapole moment (field-independent basis, Debye-Ang**3):
 XXXX=  -442.0251 YYYY= -1041.1542 ZZZZ= -1858.8710 XXXY=     0.0000
 XXXZ=     0.0000 YYYX=     0.0000 YYYZ=     0.0000 ZZZX=     0.0000
 ZZZY=     0.0000 XXYY=  -238.0775 XXZZ=  -397.9594 YYZZ=  -475.9060
 XXYZ=     0.0000 YYXZ=     0.0000 ZZXY=     0.0000
 N-N= 9.842457419310D+02 E-N=-7.464444779557D+03  KE= 2.311031213009D+03
 Symmetry A1   KE= 1.270549785780D+03
 Symmetry A2   KE= 7.507128904415D+01
 Symmetry B1   KE= 3.627926564255D+02
 Symmetry B2   KE= 6.026174817595D+02
  Exact polarizability: 165.367   0.000 223.712   0.000   0.000 297.919
 Approx polarizability: 261.522   0.000 347.245   0.000   0.000 401.905
                          Isotropic Fermi Contact Couplings
        Atom                 a.u.       MegaHertz       Gauss      10(-4) cm-1
     1  Si(29)             0.00017      -0.15324      -0.05468      -0.05112
     2  Si(29)             0.09418     -83.70115     -29.86665     -27.91970
     3  Si(29)            -0.07743      68.81535      24.55503      22.95433
     4  Si(29)            -0.07743      68.81535      24.55503      22.95433
     5  Si(29)             0.01177     -10.46442      -3.73396      -3.49055
     6  Si(29)            -0.00494       4.39360       1.56774       1.46555
     7  Si(29)             0.09418     -83.70115     -29.86665     -27.91970
     8  Si(29)            -0.00494       4.39360       1.56774       1.46555
 --------------------------------------------------------
       Center         ----  Spin Dipole Couplings  ----
                      3XX-RR        3YY-RR        3ZZ-RR
 --------------------------------------------------------
     1   Atom        0.277858     -0.156414     -0.121443
     2   Atom       -0.024259     -0.028838      0.053097
     3   Atom       -0.053170      0.030580      0.022590
     4   Atom       -0.053170      0.030580      0.022590
     5   Atom        1.560787     -0.691902     -0.868884
     6   Atom        0.012384     -0.012227     -0.000157
     7   Atom       -0.024259     -0.028838      0.053097
     8   Atom        0.012384     -0.012227     -0.000157
 --------------------------------------------------------
                        XY            XZ            YZ
 --------------------------------------------------------
     1   Atom        0.000000      0.000000      0.000000
     2   Atom        0.000000     -0.178857      0.000000
     3   Atom        0.000000      0.000000     -0.036512
     4   Atom        0.000000      0.000000      0.036512
     5   Atom        0.000000      0.000000      0.000000
     6   Atom        0.000000      0.000000      0.008406
     7   Atom        0.000000      0.178857      0.000000
     8   Atom        0.000000      0.000000     -0.008406
 --------------------------------------------------------


 ---------------------------------------------------------------------------------
              Anisotropic Spin Dipole Couplings in Principal Axis System
 ---------------------------------------------------------------------------------

       Atom             a.u.   MegaHertz   Gauss  10(-4) cm-1        Axes

              Baa    -0.1564    16.593     5.921     5.535  0.0000  1.0000  0.0000
     1 Si(29) Bbb    -0.1214    12.883     4.597     4.297  0.0000  0.0000  1.0000
              Bcc     0.2779   -29.476   -10.518    -9.832  1.0000  0.0000  0.0000
 
              Baa    -0.1686    17.883     6.381     5.965  0.7783  0.0000  0.6279
     2 Si(29) Bbb    -0.0288     3.059     1.092     1.020  0.0000  1.0000  0.0000
              Bcc     0.1974   -20.942    -7.473    -6.986 -0.6279  0.0000  0.7783
 
              Baa    -0.0532     5.641     2.013     1.881  1.0000  0.0000  0.0000
     3 Si(29) Bbb    -0.0101     1.076     0.384     0.359  0.0000  0.6675  0.7446
              Bcc     0.0633    -6.717    -2.397    -2.240  0.0000  0.7446 -0.6675
 
              Baa    -0.0532     5.641     2.013     1.881  1.0000  0.0000  0.0000
     4 Si(29) Bbb    -0.0101     1.076     0.384     0.359  0.0000 -0.6675  0.7446
              Bcc     0.0633    -6.717    -2.397    -2.240  0.0000  0.7446  0.6675
 
              Baa    -0.8689    92.175    32.890    30.746  0.0000  0.0000  1.0000
     5 Si(29) Bbb    -0.6919    73.400    26.191    24.484  0.0000  1.0000  0.0000
              Bcc     1.5608  -165.575   -59.081   -55.230  1.0000  0.0000  0.0000
 
              Baa    -0.0165     1.755     0.626     0.585  0.0000  0.8897 -0.4565
     6 Si(29) Bbb     0.0042    -0.441    -0.157    -0.147  0.0000  0.4565  0.8897
              Bcc     0.0124    -1.314    -0.469    -0.438  1.0000  0.0000  0.0000
 
              Baa    -0.1686    17.883     6.381     5.965  0.7783  0.0000 -0.6279
     7 Si(29) Bbb    -0.0288     3.059     1.092     1.020  0.0000  1.0000  0.0000
              Bcc     0.1974   -20.942    -7.473    -6.986  0.6279  0.0000  0.7783
 
              Baa    -0.0165     1.755     0.626     0.585  0.0000  0.8897  0.4565
     8 Si(29) Bbb     0.0042    -0.441    -0.157    -0.147  0.0000 -0.4565  0.8897
              Bcc     0.0124    -1.314    -0.469    -0.438  1.0000  0.0000  0.0000
 

 ---------------------------------------------------------------------------------

 Full mass-weighted force constant matrix:
 Low frequencies ---  -33.1965   -0.0041   -0.0029    0.0009   16.7748   18.2217
 Low frequencies ---   42.9255  101.7684  118.9838
 Diagonal vibrational polarizability:
       17.8011310      14.7419500      17.1318795
 Diagonal vibrational hyperpolarizability:
       -0.0397164       0.0018827      81.2654313
 Harmonic frequencies (cm**-1), IR intensities (KM/Mole), Raman scattering
 activities (A**4/AMU), depolarization ratios for plane and unpolarized
 incident light, reduced masses (AMU), force constants (mDyne/A),
 and normal coordinates:
                     1                      2                      3
                    B1                     B1                     B2
 Frequencies --    19.0085               100.0412               118.1532
 Red. masses --    27.9769                27.9769                27.9769
 Frc consts  --     0.0060                 0.1650                 0.2301
 IR Inten    --     0.2071                 0.4352                 1.3301
 Raman Activ --     0.2003                 4.3512                 0.0110
 Depolar (P) --     0.7500                 0.7500                 0.7500
 Depolar (U) --     0.8571                 0.8571                 0.8571
 Atom AN      X      Y      Z        X      Y      Z        X      Y      Z
   1  14     0.43   0.00   0.00     0.43   0.00   0.00     0.00   0.44   0.00
   2  14     0.14   0.00   0.01    -0.07   0.00  -0.24     0.00  -0.20   0.00
   3  14     0.28   0.00   0.00    -0.34   0.00   0.00     0.00  -0.33  -0.10
   4  14     0.28   0.00   0.00    -0.34   0.00   0.00     0.00  -0.33   0.10
   5  14    -0.18   0.00   0.00     0.66   0.00   0.00     0.00   0.66   0.00
   6  14    -0.54   0.00   0.00    -0.14   0.00   0.00     0.00  -0.02  -0.18
   7  14     0.14   0.00  -0.01    -0.07   0.00   0.24     0.00  -0.20   0.00
   8  14    -0.54   0.00   0.00    -0.14   0.00   0.00     0.00  -0.02   0.18
                     4                      5                      6
                    A2                     A1                     B2
 Frequencies --   119.9189               176.9454               231.2163
 Red. masses --    27.9769                27.9769                27.9769
 Frc consts  --     0.2370                 0.5161                 0.8812
 IR Inten    --     0.0000                 0.0028                 0.0248
 Raman Activ --     0.0045                 1.1483                11.0785
 Depolar (P) --     0.7500                 0.7243                 0.7500
 Depolar (U) --     0.8571                 0.8401                 0.8571
 Atom AN      X      Y      Z        X      Y      Z        X      Y      Z
   1  14     0.00   0.00   0.00     0.00   0.00   0.17     0.00   0.62   0.00
   2  14     0.00  -0.01   0.00    -0.02   0.00   0.35     0.00  -0.03   0.00
   3  14     0.61   0.00   0.00     0.00   0.05   0.00     0.00  -0.03  -0.24
   4  14    -0.61   0.00   0.00     0.00  -0.05   0.00     0.00  -0.03   0.24
   5  14     0.00   0.00   0.00     0.00   0.00   0.21     0.00  -0.31   0.00
   6  14     0.35   0.00   0.00     0.00   0.23  -0.54     0.00  -0.10   0.44
   7  14     0.00   0.01   0.00     0.02   0.00   0.35     0.00  -0.03   0.00
   8  14    -0.35   0.00   0.00     0.00  -0.23  -0.54     0.00  -0.10  -0.44
                     7                      8                      9
                    B1                     A1                     B2
 Frequencies --   235.0023               256.4478               269.6554
 Red. masses --    27.9769                27.9769                27.9769
 Frc consts  --     0.9103                 1.0840                 1.1986
 IR Inten    --     1.5100                12.5376                 0.7294
 Raman Activ --     1.4157                37.0145                 3.5480
 Depolar (P) --     0.7500                 0.4016                 0.7500
 Depolar (U) --     0.8571                 0.5731                 0.8571
 Atom AN      X      Y      Z        X      Y      Z        X      Y      Z
   1  14    -0.32   0.00   0.00     0.00   0.00  -0.35     0.00   0.29   0.00
   2  14     0.58   0.00   0.07     0.05   0.00  -0.29     0.00  -0.38   0.00
   3  14    -0.30   0.00   0.00     0.00  -0.19   0.17     0.00   0.47   0.13
   4  14    -0.30   0.00   0.00     0.00   0.19   0.17     0.00   0.47  -0.13
   5  14     0.02   0.00   0.00     0.00   0.00   0.73     0.00  -0.04   0.00
   6  14    -0.13   0.00   0.00     0.00   0.12  -0.07     0.00  -0.21  -0.18
   7  14     0.58   0.00  -0.07    -0.05   0.00  -0.29     0.00  -0.38   0.00
   8  14    -0.13   0.00   0.00     0.00  -0.12  -0.07     0.00  -0.21   0.18
                    10                     11                     12
                    A1                     B1                     A2
 Frequencies --   313.1031               318.9316               329.6836
 Red. masses --    27.9769                27.9769                27.9769
 Frc consts  --     1.6159                 1.6767                 1.7916
 IR Inten    --     0.0038                 1.7826                 0.0000
 Raman Activ --    31.2626                 5.6877                 6.9924
 Depolar (P) --     0.2940                 0.7500                 0.7500
 Depolar (U) --     0.4544                 0.8571                 0.8571
 Atom AN      X      Y      Z        X      Y      Z        X      Y      Z
   1  14     0.00   0.00  -0.23     0.40   0.00   0.00     0.00   0.00   0.00
   2  14    -0.06   0.00  -0.03    -0.05   0.00   0.61     0.00   0.62   0.00
   3  14     0.00   0.09   0.16    -0.20   0.00   0.00    -0.16   0.00   0.00
   4  14     0.00  -0.09   0.16    -0.20   0.00   0.00     0.16   0.00   0.00
   5  14     0.00   0.00  -0.32    -0.02   0.00   0.00     0.00   0.00   0.00
   6  14     0.00   0.60   0.15     0.06   0.00   0.00     0.30   0.00   0.00
   7  14     0.06   0.00  -0.03    -0.05   0.00  -0.61     0.00  -0.62   0.00
   8  14     0.00  -0.60   0.15     0.06   0.00   0.00    -0.30   0.00   0.00
                    13                     14                     15
                    A1                     B2                     A1
 Frequencies --   336.2723               361.1593               398.3176
 Red. masses --    27.9769                27.9769                27.9769
 Frc consts  --     1.8639                 2.1500                 2.6152
 IR Inten    --     0.0228                31.4851                25.2640
 Raman Activ --    16.8235                 3.4871                47.6700
 Depolar (P) --     0.4819                 0.7500                 0.0070
 Depolar (U) --     0.6504                 0.8571                 0.0140
 Atom AN      X      Y      Z        X      Y      Z        X      Y      Z
   1  14     0.00   0.00  -0.40     0.00  -0.16   0.00     0.00   0.00   0.24
   2  14     0.41   0.00   0.10     0.00  -0.39   0.00    -0.40   0.00  -0.26
   3  14     0.00   0.48   0.04     0.00   0.03  -0.26     0.00   0.45   0.15
   4  14     0.00  -0.48   0.04     0.00   0.03   0.26     0.00  -0.45   0.15
   5  14     0.00   0.00   0.09     0.00  -0.14   0.00     0.00   0.00   0.13
   6  14     0.00  -0.10   0.01     0.00   0.51   0.01     0.00  -0.06  -0.08
   7  14    -0.41   0.00   0.10     0.00  -0.39   0.00     0.40   0.00  -0.26
   8  14     0.00   0.10   0.01     0.00   0.51  -0.01     0.00   0.06  -0.08
                    16                     17                     18
                    A1                     A1                     B2
 Frequencies --   414.2246               424.3529               433.4867
 Red. masses --    27.9769                27.9769                27.9769
 Frc consts  --     2.8283                 2.9683                 3.0974
 IR Inten    --     0.5856                50.9591                37.7024
 Raman Activ --     6.1870               112.5364                 1.6643
 Depolar (P) --     0.3549                 0.0478                 0.7500
 Depolar (U) --     0.5239                 0.0912                 0.8571
 Atom AN      X      Y      Z        X      Y      Z        X      Y      Z
   1  14     0.00   0.00   0.35     0.00   0.00   0.58     0.00   0.05   0.00
   2  14     0.32   0.00  -0.24     0.26   0.00  -0.19     0.00  -0.17   0.00
   3  14     0.00  -0.09   0.42     0.00   0.11  -0.34     0.00  -0.09   0.55
   4  14     0.00   0.09   0.42     0.00  -0.11  -0.34     0.00  -0.09  -0.55
   5  14     0.00   0.00  -0.33     0.00   0.00   0.25     0.00   0.14   0.00
   6  14     0.00  -0.05  -0.20     0.00   0.24   0.12     0.00   0.17   0.34
   7  14    -0.32   0.00  -0.24    -0.26   0.00  -0.19     0.00  -0.17   0.00
   8  14     0.00   0.05  -0.20     0.00  -0.24   0.12     0.00   0.17  -0.34

 -------------------
 - Thermochemistry -
 -------------------
 Temperature   298.150 Kelvin.  Pressure   1.00000 Atm.
 Atom  1 has atomic number 14 and mass  27.97693
 Atom  2 has atomic number 14 and mass  27.97693
 Atom  3 has atomic number 14 and mass  27.97693
 Atom  4 has atomic number 14 and mass  27.97693
 Atom  5 has atomic number 14 and mass  27.97693
 Atom  6 has atomic number 14 and mass  27.97693
 Atom  7 has atomic number 14 and mass  27.97693
 Atom  8 has atomic number 14 and mass  27.97693
 Molecular mass:   223.81543 amu.
 Principal axes and moments of inertia in atomic units:
                           1         2         3
     EIGENVALUES --  1552.047562669.413643500.54588
           X            0.00000   0.00000   1.00000
           Y            0.00000   1.00000   0.00000
           Z            1.00000   0.00000   0.00000
 This molecule is an asymmetric top.
 Rotational symmetry number  2.
 Warning -- assumption of classical behavior for rotation
           may cause significant error
 Rotational temperatures (Kelvin)      0.05581     0.03245     0.02474
 Rotational constants (GHZ):           1.16281     0.67608     0.51556
 Zero-point vibrational energy      29044.9 (Joules/Mol)
                                    6.94189 (Kcal/Mol)
 Warning -- explicit consideration of  18 degrees of freedom as
           vibrations may cause significant error
 Vibrational temperatures:     27.35   143.94   170.00   172.54   254.58
          (Kelvin)            332.67   338.12   368.97   387.97   450.49
                              458.87   474.34   483.82   519.63   573.09
                              595.98   610.55   623.69
 
 Zero-point correction=                           0.011063 (Hartree/Particle)
 Thermal correction to Energy=                    0.022568
 Thermal correction to Enthalpy=                  0.023512
 Thermal correction to Gibbs Free Energy=        -0.028193
 Sum of electronic and zero-point Energies=          -2311.061853
 Sum of electronic and thermal Energies=             -2311.050348
 Sum of electronic and thermal Enthalpies=           -2311.049404
 Sum of electronic and thermal Free Energies=        -2311.101109
 
                     E (Thermal)             CV                S
                      KCal/Mol        Cal/Mol-Kelvin    Cal/Mol-Kelvin
 Total                   14.161             36.481            108.821
 Electronic               0.000              0.000              1.377
 Translational            0.889              2.981             42.120
 Rotational               0.889              2.981             29.673
 Vibrational             12.384             30.519             35.651
 Vibration  1             0.593              1.986              6.735
 Vibration  2             0.604              1.949              3.454
 Vibration  3             0.608              1.934              3.130
 Vibration  4             0.609              1.933              3.102
 Vibration  5             0.628              1.871              2.360
 Vibration  6             0.653              1.793              1.869
 Vibration  7             0.655              1.787              1.840
 Vibration  8             0.666              1.752              1.686
 Vibration  9             0.674              1.729              1.598
 Vibration 10             0.701              1.649              1.346
 Vibration 11             0.705              1.637              1.316
 Vibration 12             0.712              1.616              1.262
 Vibration 13             0.717              1.603              1.230
 Vibration 14             0.735              1.552              1.117
 Vibration 15             0.765              1.474              0.969
 Vibration 16             0.778              1.439              0.912
 Vibration 17             0.786              1.417              0.877
 Vibration 18             0.794              1.397              0.847
                       Q            Log10(Q)             Ln(Q)
 Total Bot       0.928317D+13         12.967696         29.859224
 Total V=0       0.113796D+19         18.056129         41.575773
 Vib (Bot)       0.517406D-01         -1.286169         -2.961513
 Vib (Bot)  1    0.108979D+02          1.037342          2.388569
 Vib (Bot)  2    0.205142D+01          0.312054          0.718531
 Vib (Bot)  3    0.173033D+01          0.238130          0.548314
 Vib (Bot)  4    0.170416D+01          0.231511          0.533074
 Vib (Bot)  5    0.113629D+01          0.055488          0.127766
 Vib (Bot)  6    0.851382D+00         -0.069876         -0.160894
 Vib (Bot)  7    0.836262D+00         -0.077658         -0.178814
 Vib (Bot)  8    0.758709D+00         -0.119925         -0.276137
 Vib (Bot)  9    0.716824D+00         -0.144587         -0.332925
 Vib (Bot) 10    0.602840D+00         -0.219798         -0.506103
 Vib (Bot) 11    0.589789D+00         -0.229303         -0.527990
 Vib (Bot) 12    0.566854D+00         -0.246528         -0.567653
 Vib (Bot) 13    0.553482D+00         -0.256896         -0.591525
 Vib (Bot) 14    0.507114D+00         -0.294894         -0.679019
 Vib (Bot) 15    0.448023D+00         -0.348699         -0.802910
 Vib (Bot) 16    0.425763D+00         -0.370832         -0.853873
 Vib (Bot) 17    0.412401D+00         -0.384680         -0.885759
 Vib (Bot) 18    0.400852D+00         -0.397016         -0.914164
 Vib (V=0)       0.634255D+04          3.802264          8.755036
 Vib (V=0)  1    0.114094D+02          1.057261          2.434434
 Vib (V=0)  2    0.261147D+01          0.416885          0.959914
 Vib (V=0)  3    0.230112D+01          0.361940          0.833398
 Vib (V=0)  4    0.227600D+01          0.357172          0.822419
 Vib (V=0)  5    0.174143D+01          0.240906          0.554707
 Vib (V=0)  6    0.148735D+01          0.172412          0.396993
 Vib (V=0)  7    0.147434D+01          0.168597          0.388209
 Vib (V=0)  8    0.140865D+01          0.148802          0.342629
 Vib (V=0)  9    0.137398D+01          0.137980          0.317710
 Vib (V=0) 10    0.128321D+01          0.108297          0.249364
 Vib (V=0) 11    0.127321D+01          0.104899          0.241540
 Vib (V=0) 12    0.125586D+01          0.098941          0.227820
 Vib (V=0) 13    0.124588D+01          0.095478          0.219845
 Vib (V=0) 14    0.121216D+01          0.083558          0.192400
 Vib (V=0) 15    0.117136D+01          0.068691          0.158166
 Vib (V=0) 16    0.115671D+01          0.063226          0.145584
 Vib (V=0) 17    0.114813D+01          0.059992          0.138136
 Vib (V=0) 18    0.114084D+01          0.057227          0.131769
 Electronic      0.200000D+01          0.301030          0.693147
 Translational   0.131610D+09          8.119290         18.695357
 Rotational      0.681624D+06          5.833545         13.432233
 ***** Axes restored to original set *****
 -------------------------------------------------------------------
 Center     Atomic                   Forces (Hartrees/Bohr)
 Number     Number              X              Y              Z
 -------------------------------------------------------------------
    1         14           0.000000000    0.000000000    0.006183586
    2         14          -0.001717507    0.000000000    0.000215727
    3         14           0.000000000    0.000370360   -0.015572951
    4         14           0.000000000   -0.000370360   -0.015572951
    5         14           0.000000000    0.000000000    0.010299507
    6         14           0.000000000   -0.000765733    0.007115678
    7         14           0.001717507    0.000000000    0.000215727
    8         14           0.000000000    0.000765733    0.007115678
 -------------------------------------------------------------------
 Cartesian Forces:  Max     0.015572951 RMS     0.005545478
 ------------------------------------------------------------------------
           Internal Coordinate Forces (Hartree/Bohr or radian)
 Cent Atom N1     Length/X     N2     Alpha/Y      N3      Beta/Z       J
 ------------------------------------------------------------------------
   1  Si        0.000000(   1)      0.000000(   9)      0.006184(  17)
   2  Si       -0.001718(   2)      0.000000(  10)      0.000216(  18)
   3  Si        0.000000(   3)      0.000370(  11)     -0.015573(  19)
   4  Si        0.000000(   4)     -0.000370(  12)     -0.015573(  20)
   5  Si        0.000000(   5)      0.000000(  13)      0.010300(  21)
   6  Si        0.000000(   6)     -0.000766(  14)      0.007116(  22)
   7  Si        0.001718(   7)      0.000000(  15)      0.000216(  23)
   8  Si        0.000000(   8)      0.000766(  16)      0.007116(  24)
 ------------------------------------------------------------------------
 Internal  Forces:  Max     0.015572951 RMS     0.005545478

 GradGradGradGradGradGradGradGradGradGradGradGradGradGradGradGradGradGrad
 Berny optimization.
 Search for a local minimum.
 Step number   1 out of a maximum of   2
 All quantities printed in internal units (Hartrees-Bohrs-Radians)
 Second derivative matrix not updated -- analytic derivatives used.
     Eigenvalues ---    0.00038   0.01060   0.01478   0.01523   0.03315
     Eigenvalues ---    0.05660   0.05847   0.06963   0.07699   0.10379
     Eigenvalues ---    0.10769   0.11508   0.11972   0.13810   0.16798
     Eigenvalues ---    0.18166   0.19065   0.19895
 Angle between quadratic step and forces=  31.46 degrees.
 Linear search not attempted -- first point.
 TrRot=  0.000000  0.000000  0.000000  0.000000  0.000000  0.000000
 Variable       Old X    -DE/DX   Delta X   Delta X   Delta X     New X
                                 (Linear)    (Quad)   (Total)
    X1        0.00000   0.00000   0.00000   0.00000   0.00000   0.00000
    Y1        0.00000   0.00000   0.00000   0.00000   0.00000   0.00000
    Z1       -4.83186   0.00618   0.00000   0.02380   0.02380  -4.80805
    X2        2.53812  -0.00172   0.00000  -0.00998  -0.00998   2.52814
    Y2        0.00000   0.00000   0.00000   0.00000   0.00000   0.00000
    Z2       -0.96861   0.00022   0.00000  -0.03068  -0.03068  -0.99928
    X3        0.00000   0.00000   0.00000   0.00000   0.00000   0.00000
    Y3       -2.33763   0.00037   0.00000   0.01258   0.01258  -2.32504
    Z3        2.28305  -0.01557   0.00000  -0.09016  -0.09016   2.19289
    X4        0.00000   0.00000   0.00000   0.00000   0.00000   0.00000
    Y4        2.33763  -0.00037   0.00000  -0.01258  -0.01258   2.32504
    Z4        2.28305  -0.01557   0.00000  -0.09016  -0.09016   2.19289
    X5        0.00000   0.00000   0.00000   0.00000   0.00000   0.00000
    Y5        0.00000   0.00000   0.00000   0.00000   0.00000   0.00000
    Z5        6.22787   0.01030   0.00000   0.03930   0.03930   6.26716
    X6        0.00000   0.00000   0.00000   0.00000   0.00000   0.00000
    Y6        3.97888  -0.00077   0.00000   0.03716   0.03716   4.01604
    Z6       -2.01202   0.00712   0.00000   0.08929   0.08929  -1.92273
    X7       -2.53812   0.00172   0.00000   0.00998   0.00998  -2.52814
    Y7        0.00000   0.00000   0.00000   0.00000   0.00000   0.00000
    Z7       -0.96861   0.00022   0.00000  -0.03068  -0.03068  -0.99928
    X8        0.00000   0.00000   0.00000   0.00000   0.00000   0.00000
    Y8       -3.97888   0.00077   0.00000  -0.03716  -0.03716  -4.01604
    Z8       -2.01202   0.00712   0.00000   0.08929   0.08929  -1.92273
         Item               Value     Threshold  Converged?
 Maximum Force            0.015573     0.000450     NO 
 RMS     Force            0.005545     0.000300     NO 
 Maximum Displacement     0.090161     0.001800     NO 
 RMS     Displacement     0.040556     0.001200     NO 
 Predicted change in Energy=-2.302122D-03
 GradGradGradGradGradGradGradGradGradGradGradGradGradGradGradGradGradGrad

 1\1\GINC-NODE24\Freq\UHF\6-311G(d)\Si8(1+,2)\TAM\17-Jun-2011\0\\# hf/6
 -311G(d) freq scfcyc=500 scf=xqc\\si8-c\\1,2\Si,0.,0.,-2.556909\Si,1.3
 4311515,0.,-0.51256393\Si,0.,-1.237018,1.20814\Si,0.,1.237018,1.20814\
 Si,0.,0.,3.295646\Si,0.,2.10553,-1.064716\Si,-1.34311515,0.,-0.5125639
 3\Si,0.,-2.10553,-1.064716\\Version=AM64L-G03RevE.01\State=2-B1\HF=-23
 11.0729159\S2=0.791719\S2-1=0.\S2A=0.751286\RMSD=7.794e-09\RMSF=5.545e
 -03\ZeroPoint=0.0110626\Thermal=0.0225675\Dipole=0.,0.,-0.1636627\Dipo
 leDeriv=0.2100614,0.,-0.0000055,0.0000005,0.0916143,0.,-0.0000011,-0.0
 000003,0.7729056,-0.0087156,0.,0.0421293,-0.000001,-0.4078139,-0.00000
 03,-0.1455183,0.0000006,-0.4745092,0.1546448,0.0000008,-0.0000014,0.00
 0001,-0.0777654,-0.4000322,-0.0000019,-0.2920129,-0.105417,0.1546415,-
 0.0000011,0.0000035,-0.0000009,-0.0777669,0.4000342,-0.0000027,0.29201
 47,-0.1054156,0.047556,0.0000002,-0.0000018,-0.0000005,0.2555605,0.000
 0002,0.0000049,-0.0000009,1.0068684,0.225258,0.0000002,-0.0000023,-0.0
 000005,0.8119926,-0.3242989,0.0000002,-0.3625792,0.1900409,-0.0087034,
 -0.0000007,-0.0421326,0.0000008,-0.4078159,-0.0000006,0.1455255,0.0000
 013,-0.4745114,0.2252576,0.0000006,0.0000032,0.0000012,0.8119943,0.324
 2979,-0.0000045,0.362577,0.1900414\Polar=165.3670749,0.0000004,223.711
 5425,-0.0000798,0.0000151,297.9194379\PolarDeriv=-0.0001831,0.0000618,
 -0.0000318,-9.3561738,0.0000143,0.0010672,-0.0000633,0.0002238,0.00014
 45,0.0002379,-7.9701578,-0.0000796,-4.6106895,-0.0001208,-5.8008635,0.
 0001033,0.0000374,-38.6654717,21.2516181,0.0001011,6.2573933,1.1205051
 ,-0.0000403,11.7733154,0.0001021,4.0801327,-0.0000356,-0.0001498,0.661
 701,0.0001141,0.0667663,0.0000272,0.2431933,4.1977828,0.0000336,-1.642
 8142,0.0000804,-4.0646075,0.000037,0.2764669,0.0000042,0.0004813,-3.04
 51488,0.0000775,-12.5853478,0.0000752,5.5423563,-2.4634456,2.3881481,0
 .0001798,7.6417616,0.0002345,-1.8550452,22.8037798,0.000213,4.0646138,
 0.0000577,0.2767147,-0.0000138,-0.0005387,3.0447196,0.0000075,12.58556
 46,-0.0002143,5.5423345,2.4635209,2.388003,-0.0000298,7.6415239,0.0003
 578,1.8553045,22.8037505,-0.0001017,-0.0000799,-0.0000022,14.8974101,0
 .000009,0.0001977,-0.0001142,-0.0000998,-0.0000464,0.0001609,8.2141189
 ,0.0003167,2.0993305,-0.0000428,4.2236079,-0.0000992,-0.0002731,18.261
 1671,0.000148,7.5460517,0.0000582,-4.1676783,-0.000064,0.0003216,5.246
 6864,0.0001092,27.8490047,-0.000228,-6.3259292,7.2366819,-1.1988876,-0
 .0001332,-7.0961008,-0.0000209,7.0706322,-10.9592318,-21.2519253,-0.00
 00662,-6.2574824,1.1204217,0.0000794,-11.7733237,0.0000719,-4.0803345,
 -0.0000377,0.0000263,0.6613562,-0.0003957,0.0664064,0.000102,0.2430556
 ,-4.1982004,-0.0000249,-1.643239,0.000046,-7.5460661,-0.0000073,-4.167
 6023,-0.0000348,-0.0003026,-5.2463425,-0.0000903,-27.849149,0.000065,-
 6.3257818,-7.2365292,-1.19892,-0.0000117,-7.0962017,0.0000364,-7.07068
 98,-10.9592317\HyperPolar=0.0045728,0.0014162,-0.0007722,-0.0001579,-2
 5.5189544,-0.0002963,-131.9048864,-0.0110014,0.0020112,-558.2396481\PG
 =C02V [C2(Si1Si1),SGV(Si4),SGV'(Si2)]\NImag=0\\0.02580487,-0.00000008,
 0.03527368,0.00000011,-0.00000002,0.12891468,-0.01329051,0.00000008,-0
 .01394512,0.09840222,0.00000019,-0.00394046,0.,-0.00000016,0.08299013,
 -0.02395888,0.,-0.04126037,0.00295144,-0.00000001,0.08052447,-0.005383
 54,0.00000001,0.,-0.00904070,-0.01164632,0.01316612,0.02039659,-0.0000
 0011,0.00502664,-0.00381624,-0.00789169,-0.01119143,0.00986139,-0.0000
 0004,0.08960428,0.00000009,-0.00453696,-0.01428470,0.00130211,0.008393
 21,-0.01605197,0.00000018,0.00602748,0.13825952,-0.00538321,-0.0000000
 6,0.,-0.00904152,0.01164651,0.01316622,0.00286881,0.,-0.00000028,0.020
 39659,0.00000006,0.00502659,0.00381623,0.00789177,-0.01119142,-0.00986
 148,0.,-0.04829828,0.00568580,-0.00000004,0.08960428,0.00000035,0.0045
 3703,-0.01428468,0.00130179,-0.00839294,-0.01605171,0.00000028,-0.0056
 8580,-0.01126409,-0.00000018,-0.00602748,0.13825952,0.00229901,0.,0.00
 000006,0.00032062,0.00000007,0.00290929,-0.00167859,-0.00000004,-0.000
 00003,-0.00167850,0.00000002,0.00000011,0.00299796,0.,-0.00274616,0.00
 000004,0.00000002,0.00251843,-0.00000004,-0.00000008,-0.00661827,-0.02
 374184,0.00000004,-0.00661821,0.02374170,-0.00000001,0.01739560,-0.000
 00025,-0.00000004,-0.00175854,0.00588118,0.00000002,-0.01084326,-0.000
 00013,-0.01301020,-0.03400980,0.00000029,0.01301033,-0.03400967,-0.000
 00003,0.00000003,0.08439893,0.00462245,0.00000001,0.00000007,-0.004497
 78,0.02119306,-0.00352002,-0.00138740,-0.00000003,0.00000007,0.0032664
 7,0.00000004,0.00000009,-0.00129036,-0.00000006,-0.00000009,0.01414059
 ,0.00000004,-0.01734993,-0.00903160,0.00525737,-0.02679974,0.00651877,
 0.,-0.00860163,0.00999453,-0.00000002,-0.00872996,0.01021518,0.,-0.003
 22494,0.00054746,-0.00000002,0.09909048,-0.00000002,-0.01283854,-0.008
 03313,0.00065706,0.00703059,0.00259060,-0.00000002,0.01059033,0.006125
 38,-0.00000003,0.01382822,-0.05272259,-0.00000004,-0.00015245,0.003532
 93,-0.00000007,-0.02512614,0.05975572,-0.01329164,0.00000005,0.0139451
 0,-0.05835369,-0.00000028,-0.00119451,-0.00904152,0.00789177,-0.001301
 79,-0.00904070,-0.00789169,-0.00130211,0.00032031,0.00000009,-0.005881
 47,-0.00449830,-0.00525724,-0.00065668,0.09840222,0.00000004,-0.003940
 47,0.00000002,-0.00000028,-0.00558580,0.00000006,0.01164651,-0.0111914
 2,0.00839294,-0.01164632,-0.01119143,-0.00839321,0.,0.00251866,0.,-0.0
 2119291,-0.02679968,0.00703070,-0.00000016,0.08299013,0.02395826,0.000
 00005,-0.04126041,0.00119451,-0.00000006,-0.00149778,-0.01316622,0.009
 86148,-0.01605171,-0.01316612,-0.00986139,-0.01605197,-0.00290946,-0.0
 0000013,-0.01084350,0.00351984,0.00651874,0.00259049,-0.00295144,0.000
 00002,0.08052447,0.00462257,0.00000002,-0.00000006,-0.00449830,-0.0211
 9291,-0.00351984,0.00326647,0.00000004,-0.00000009,-0.00138740,-0.0000
 0003,-0.00000007,-0.00129036,-0.00000005,0.00000016,-0.01035574,-0.000
 00007,-0.00000020,-0.00449778,0.02119306,0.00352002,0.01414059,-0.0000
 0012,-0.01734991,0.00903159,-0.00525724,-0.02679968,-0.00651874,-0.000
 00002,-0.00872996,-0.01021518,0.,-0.00860163,-0.00999453,-0.00000003,-
 0.00322512,-0.00054756,-0.00000007,-0.00758453,-0.00036285,0.00525737,
 -0.02679974,-0.00651877,-0.00000002,0.09909048,0.00000037,0.01283846,-
 0.00803312,0.00065668,-0.00703070,0.00259049,0.00000003,-0.01382822,-0
 .05272259,0.00000002,-0.01059033,0.00612538,0.00000015,0.00015265,0.00
 353297,0.00000020,0.00036285,-0.01383977,-0.00065706,-0.00703059,0.002
 59060,0.00000007,0.02512614,0.05975572\\0.,0.,-0.00618359,0.00171751,0
 .,-0.00021573,0.,-0.00037036,0.01557295,0.,0.00037036,0.01557295,0.,0.
 ,-0.01029951,0.,0.00076573,-0.00711568,-0.00171751,0.,-0.00021573,0.,-
 0.00076573,-0.00711568\\\@


 NOTHING WILL BE ATTEMPTED IF ALL POSSIBLE OBJECTIONS
 MUST FIRST BE OVERCOME.

                               -- THE GOLDEN PRINCIPLE,
                    PAUL DICKSON'S "THE OFFICIAL RULES"
 Job cpu time:  0 days  0 hours 37 minutes 17.2 seconds.
 File lengths (MBytes):  RWF=    124 Int=      0 D2E=      0 Chk=      9 Scr=      1
 Normal termination of Gaussian 03 at Fri Jun 17 16:44:37 2011.
 Initial command:
 /usr/local/chem/g03E01/l1.exe /temp0/tam/Gau-13873.inp -scrdir=/temp0/tam/
 Entering Link 1 = /usr/local/chem/g03E01/l1.exe PID=     13946.
  
 Copyright (c) 1988,1990,1992,1993,1995,1998,2003,2004,2007, Gaussian, Inc.
                  All Rights Reserved.
  
 This is the Gaussian(R) 03 program.  It is based on the
 the Gaussian(R) 98 system (copyright 1998, Gaussian, Inc.),
 the Gaussian(R) 94 system (copyright 1995, Gaussian, Inc.),
 the Gaussian 92(TM) system (copyright 1992, Gaussian, Inc.),
 the Gaussian 90(TM) system (copyright 1990, Gaussian, Inc.),
 the Gaussian 88(TM) system (copyright 1988, Gaussian, Inc.),
 the Gaussian 86(TM) system (copyright 1986, Carnegie Mellon
 University), and the Gaussian 82(TM) system (copyright 1983,
 Carnegie Mellon University). Gaussian is a federally registered
 trademark of Gaussian, Inc.
  
 This software contains proprietary and confidential information,
 including trade secrets, belonging to Gaussian, Inc.
  
 This software is provided under written license and may be
 used, copied, transmitted, or stored only in accord with that
 written license.
  
 The following legend is applicable only to US Government
 contracts under FAR:
  
                    RESTRICTED RIGHTS LEGEND
  
 Use, reproduction and disclosure by the US Government is
 subject to restrictions as set forth in subparagraphs (a)
 and (c) of the Commercial Computer Software - Restricted
 Rights clause in FAR 52.227-19.
  
 Gaussian, Inc.
 340 Quinnipiac St., Bldg. 40, Wallingford CT 06492
  
  
 ---------------------------------------------------------------
 Warning -- This program may not be used in any manner that
 competes with the business of Gaussian, Inc. or will provide
 assistance to any competitor of Gaussian, Inc.  The licensee
 of this program is prohibited from giving any competitor of
 Gaussian, Inc. access to this program.  By using this program,
 the user acknowledges that Gaussian, Inc. is engaged in the
 business of creating and licensing software in the field of
 computational chemistry and represents and warrants to the
 licensee that it is not a competitor of Gaussian, Inc. and that
 it will not use this program in any manner prohibited above.
 ---------------------------------------------------------------
  

 Cite this work as:
 Gaussian 03, Revision E.01,
 M. J. Frisch, G. W. Trucks, H. B. Schlegel, G. E. Scuseria, 
 M. A. Robb, J. R. Cheeseman, J. A. Montgomery, Jr., T. Vreven, 
 K. N. Kudin, J. C. Burant, J. M. Millam, S. S. Iyengar, J. Tomasi, 
 V. Barone, B. Mennucci, M. Cossi, G. Scalmani, N. Rega, 
 G. A. Petersson, H. Nakatsuji, M. Hada, M. Ehara, K. Toyota, 
 R. Fukuda, J. Hasegawa, M. Ishida, T. Nakajima, Y. Honda, O. Kitao, 
 H. Nakai, M. Klene, X. Li, J. E. Knox, H. P. Hratchian, J. B. Cross, 
 V. Bakken, C. Adamo, J. Jaramillo, R. Gomperts, R. E. Stratmann, 
 O. Yazyev, A. J. Austin, R. Cammi, C. Pomelli, J. W. Ochterski, 
 P. Y. Ayala, K. Morokuma, G. A. Voth, P. Salvador, J. J. Dannenberg, 
 V. G. Zakrzewski, S. Dapprich, A. D. Daniels, M. C. Strain, 
 O. Farkas, D. K. Malick, A. D. Rabuck, K. Raghavachari, 
 J. B. Foresman, J. V. Ortiz, Q. Cui, A. G. Baboul, S. Clifford, 
 J. Cioslowski, B. B. Stefanov, G. Liu, A. Liashenko, P. Piskorz, 
 I. Komaromi, R. L. Martin, D. J. Fox, T. Keith, M. A. Al-Laham, 
 C. Y. Peng, A. Nanayakkara, M. Challacombe, P. M. W. Gill, 
 B. Johnson, W. Chen, M. W. Wong, C. Gonzalez, and J. A. Pople, 
 Gaussian, Inc., Wallingford CT, 2004.
 
 ******************************************
 Gaussian 03:  AM64L-G03RevE.01 11-Sep-2007
                17-Jun-2011 
 ******************************************
 %NprocShared=4
 Will use up to    4 processors via shared memory.
 %mem=3750MB
 %chk=S9L-ne-d-01
 ----------------------------------------------------------------------
 # b3lyp/6-311+G(d) opt=(readfc,noeigentest,maxcycle=500) freq scfcyc=5
 00 optcyc=500 scf=xqc geom=allcheck guess=read
 ----------------------------------------------------------------------
 1/6=500,10=3,11=1,14=-1,18=20,26=3,29=7,38=1/1,3;
 2/9=110,40=1/2;
 3/5=4,6=6,7=11,11=2,16=1,25=1,30=1,74=-5/1,2,3;
 4/5=1/1;
 5/5=2,7=500,8=3,13=1,38=6/2,8;
 6/7=2,8=2,9=2,10=2,28=1/1;
 7//1,2,3,16;
 1/6=500,11=1,14=-1,18=20/3(3);
 2/9=110/2;
 6/7=2,8=2,9=2,10=2,19=2,28=1/1;
 99//99;
 2/9=110/2;
 3/5=4,6=6,7=11,11=2,16=1,25=1,30=1,74=-5/1,2,3;
 4/5=5,16=3/1;
 5/5=2,7=500,8=3,13=1,38=5/2,8;
 7//1,2,3,16;
 1/6=500,11=1,14=-1,18=20/3(-5);
 2/9=110/2;
 6/7=2,8=2,9=2,10=2,19=2,28=1/1;
 99/9=1/99;
 -----
 si8-c
 -----
 No Z-matrix found on checkpoint file.
 Cartesian coordinates read from the checkpoint file:
 S9L-ne-d-01.chk
 Charge =  1 Multiplicity = 2
  Si                                                0.000000000000      0.000000000000     -2.556909000000
  Si                                                1.343115150000      0.000000000000     -0.512563930000
  Si                                                0.000000000000     -1.237018000000      1.208140000000
  Si                                                0.000000000000      1.237018000000      1.208140000000
  Si                                                0.000000000000      0.000000000000      3.295646000000
  Si                                                0.000000000000      2.105530000000     -1.064716000000
  Si                                               -1.343115150000      0.000000000000     -0.512563930000
  Si                                                0.000000000000     -2.105530000000     -1.064716000000
 Recover connectivity data from disk.

 GradGradGradGradGradGradGradGradGradGradGradGradGradGradGradGradGradGrad
 Berny optimization.
 Initialization pass.
 No redundant coordinates on chk file, so ReadFC converted to ReadCartesianFC.
 Cartesian force constants read from checkpoint file:
 S9L-ne-d-01.chk
                           ----------------------------
                           !    Initial Parameters    !
                           ! (Angstroms and Degrees)  !
 --------------------------                            --------------------------
 ! Name  Definition              Value          Derivative Info.                !
 --------------------------------------------------------------------------------
 ! R1    R(1,2)                  2.4461         D2E/DX2 =    0.0352             !
 ! R2    R(1,6)                  2.5807         D2E/DX2 =    0.0207             !
 ! R3    R(1,7)                  2.4461         D2E/DX2 =    0.0352             !
 ! R4    R(1,8)                  2.5807         D2E/DX2 =    0.0207             !
 ! R5    R(2,3)                  2.509          D2E/DX2 =    0.0235             !
 ! R6    R(2,4)                  2.509          D2E/DX2 =    0.0235             !
 ! R7    R(2,6)                  2.5578         D2E/DX2 =    0.0252             !
 ! R8    R(2,7)                  2.6862         D2E/DX2 =    0.0268             !
 ! R9    R(2,8)                  2.5578         D2E/DX2 =    0.0252             !
 ! R10   R(3,4)                  2.474          D2E/DX2 =    0.0314             !
 ! R11   R(3,5)                  2.4265         D2E/DX2 =    0.0381             !
 ! R12   R(3,7)                  2.509          D2E/DX2 =    0.0235             !
 ! R13   R(3,8)                  2.4331         D2E/DX2 =    0.043              !
 ! R14   R(4,5)                  2.4265         D2E/DX2 =    0.0381             !
 ! R15   R(4,6)                  2.4331         D2E/DX2 =    0.043              !
 ! R16   R(4,7)                  2.509          D2E/DX2 =    0.0235             !
 ! R17   R(6,7)                  2.5578         D2E/DX2 =    0.0252             !
 ! R18   R(7,8)                  2.5578         D2E/DX2 =    0.0252             !
 ! A1    A(6,1,8)              109.3495         D2E/DX2 =    0.005              !
 ! A2    A(1,2,3)              106.215          D2E/DX2 =    0.0033             !
 ! A3    A(1,2,4)              106.215          D2E/DX2 =    0.0033             !
 ! A4    A(3,2,6)              105.8315         D2E/DX2 =    0.0033             !
 ! A5    A(4,2,8)              105.8315         D2E/DX2 =    0.0033             !
 ! A6    A(6,2,8)              110.812          D2E/DX2 =    0.0021             !
 ! A7    A(2,3,5)              109.7952         D2E/DX2 =    0.0036             !
 ! A8    A(4,3,8)              110.913          D2E/DX2 =    0.0033             !
 ! A9    A(5,3,7)              109.7952         D2E/DX2 =    0.0036             !
 ! A10   A(5,3,8)              170.2628         D2E/DX2 =    0.0037             !
 ! A11   A(2,4,5)              109.7952         D2E/DX2 =    0.0036             !
 ! A12   A(3,4,6)              110.913          D2E/DX2 =    0.0033             !
 ! A13   A(5,4,6)              170.2628         D2E/DX2 =    0.0037             !
 ! A14   A(5,4,7)              109.7952         D2E/DX2 =    0.0036             !
 ! A15   A(1,6,4)              104.4122         D2E/DX2 =    0.0044             !
 ! A16   A(1,7,3)              106.215          D2E/DX2 =    0.0033             !
 ! A17   A(1,7,4)              106.215          D2E/DX2 =    0.0033             !
 ! A18   A(3,7,6)              105.8315         D2E/DX2 =    0.0033             !
 ! A19   A(4,7,8)              105.8315         D2E/DX2 =    0.0033             !
 ! A20   A(6,7,8)              110.812          D2E/DX2 =    0.0021             !
 ! A21   A(1,8,3)              104.4122         D2E/DX2 =    0.0044             !
 ! D1    D(8,1,6,4)              0.0            D2E/DX2 =    0.0012             !
 ! D2    D(6,1,8,3)              0.0            D2E/DX2 =    0.0012             !
 ! D3    D(1,2,3,5)           -133.7208         D2E/DX2 =    0.0022             !
 ! D4    D(6,2,3,5)            -68.8688         D2E/DX2 =    0.0025             !
 ! D5    D(1,2,4,5)            133.7208         D2E/DX2 =    0.0022             !
 ! D6    D(8,2,4,5)             68.8688         D2E/DX2 =    0.0025             !
 ! D7    D(8,3,4,6)              0.0            D2E/DX2 =    0.0                !
 ! D8    D(5,3,7,1)            133.7208         D2E/DX2 =    0.0022             !
 ! D9    D(5,3,7,6)             68.8688         D2E/DX2 =    0.0025             !
 ! D10   D(4,3,8,1)              0.0            D2E/DX2 =    0.0005             !
 ! D11   D(5,3,8,1)              0.0            D2E/DX2 =    0.0006             !
 ! D12   D(3,4,6,1)              0.0            D2E/DX2 =    0.0005             !
 ! D13   D(5,4,6,1)              0.0            D2E/DX2 =    0.0006             !
 ! D14   D(5,4,7,1)           -133.7208         D2E/DX2 =    0.0022             !
 ! D15   D(5,4,7,8)            -68.8688         D2E/DX2 =    0.0025             !
 --------------------------------------------------------------------------------
 Trust Radius=3.00D-01 FncErr=1.00D-07 GrdErr=1.00D-06
 Number of steps in this run= 100 maximum allowed number of steps= 100.
 GradGradGradGradGradGradGradGradGradGradGradGradGradGradGradGradGradGrad

                          Input orientation:                          
 ---------------------------------------------------------------------
 Center     Atomic     Atomic              Coordinates (Angstroms)
 Number     Number      Type              X           Y           Z
 ---------------------------------------------------------------------
    1         14             0        0.000000    0.000000   -2.556909
    2         14             0        1.343115    0.000000   -0.512564
    3         14             0        0.000000   -1.237018    1.208140
    4         14             0        0.000000    1.237018    1.208140
    5         14             0        0.000000    0.000000    3.295646
    6         14             0        0.000000    2.105530   -1.064716
    7         14             0       -1.343115    0.000000   -0.512564
    8         14             0        0.000000   -2.105530   -1.064716
 ---------------------------------------------------------------------
                    Distance matrix (angstroms):
                    1          2          3          4          5
     1  Si   0.000000
     2  Si   2.446080   0.000000
     3  Si   3.963055   2.508983   0.000000
     4  Si   3.963055   2.508983   2.474036   0.000000
     5  Si   5.852555   4.038121   2.426498   2.426498   0.000000
     6  Si   2.580678   2.557750   4.042091   2.433144   4.842108
     7  Si   2.446080   2.686230   2.508983   2.508983   4.038121
     8  Si   2.580678   2.557750   2.433144   4.042091   4.842108
                    6          7          8
     6  Si   0.000000
     7  Si   2.557750   0.000000
     8  Si   4.211060   2.557750   0.000000
 Stoichiometry    Si8(1+,2)
 Framework group  C2V[C2(SiSi),SGV(Si4),SGV'(Si2)]
 Deg. of freedom     7
 Full point group                 C2V
 Largest Abelian subgroup         C2V     NOp   4
 Largest concise Abelian subgroup C2V     NOp   4
                         Standard orientation:                         
 ---------------------------------------------------------------------
 Center     Atomic     Atomic              Coordinates (Angstroms)
 Number     Number      Type              X           Y           Z
 ---------------------------------------------------------------------
    1         14             0        0.000000    0.000000   -2.556966
    2         14             0       -1.343115    0.000000   -0.512621
    3         14             0        0.000000    1.237018    1.208083
    4         14             0        0.000000   -1.237018    1.208083
    5         14             0        0.000000    0.000000    3.295589
    6         14             0        0.000000   -2.105530   -1.064773
    7         14             0        1.343115    0.000000   -0.512621
    8         14             0        0.000000    2.105530   -1.064773
 ---------------------------------------------------------------------
 Rotational constants (GHZ):      1.1628131      0.6760815      0.5155599
 Standard basis: 6-311+G(d) (5D, 7F)
 There are    96 symmetry adapted basis functions of A1  symmetry.
 There are    26 symmetry adapted basis functions of A2  symmetry.
 There are    52 symmetry adapted basis functions of B1  symmetry.
 There are    66 symmetry adapted basis functions of B2  symmetry.
 Integral buffers will be    131072 words long.
 Raffenetti 2 integral format.
 Two-electron integral symmetry is turned on.
   240 basis functions,   400 primitive gaussians,   248 cartesian basis functions
    56 alpha electrons       55 beta electrons
       nuclear repulsion energy       984.2457419310 Hartrees.
 NAtoms=    8 NActive=    8 NUniq=    5 SFac= 1.92D+00 NAtFMM=   80 NAOKFM=F Big=F
 One-electron integrals computed using PRISM.
 NBasis=   240 RedAO= T  NBF=    96    26    52    66
 NBsUse=   240 1.00D-06 NBFU=    96    26    52    66
 Initial guess read from the checkpoint file:
 S9L-ne-d-01.chk
 Initial guess orbital symmetries:
 Alpha Orbitals:
       Occupied  (B2) (A1) (A1) (B2) (A1) (A1) (B1) (A1) (B2) (A1)
                 (A1) (B2) (A1) (A1) (B1) (A1) (A1) (B2) (B1) (A2)
                 (A1) (B2) (A1) (B2) (B1) (A2) (A1) (B2) (B1) (A1)
                 (B2) (A1) (B1) (B2) (A2) (A1) (B1) (B1) (B2) (A1)
                 (A1) (A1) (B2) (A1) (B1) (A1) (B2) (A1) (B1) (A2)
                 (B2) (A1) (A1) (B2) (A1) (B1)
       Virtual   (B1) (B2) (A2) (A1) (B1) (A1) (B2) (B1) (A1) (B2)
                 (A1) (A2) (B2) (B1) (A1) (B2) (A1) (B2) (A1) (B1)
                 (A2) (A1) (A1) (B2) (B1) (A1) (B1) (B2) (A2) (B1)
                 (A1) (A1) (B2) (B1) (B2) (A2) (B2) (A1) (B1) (B2)
                 (A1) (B2) (A1) (A2) (B1) (A1) (B1) (A1) (B2) (A1)
                 (A2) (B2) (B1) (A1) (B1) (B2) (A1) (B2) (A1) (A2)
                 (A1) (A2) (A1) (B1) (B2) (A2) (A1) (A1) (B1) (A2)
                 (A1) (B2) (B1) (A1) (B1) (B2) (A1) (B2) (A2) (A1)
                 (B1) (B2) (A2) (B2) (A1) (B1) (A1) (B2) (B1) (A2)
                 (B1) (B2) (B1) (A2) (B2) (B1) (A1) (B2) (A1) (A1)
                 (A1) (B2) (B2) (A2) (A1) (B1) (B2) (A1) (A1) (A1)
                 (B2) (B1) (A1) (A1) (B2) (B1) (B2) (A1) (A1) (A1)
                 (B1) (A1) (A2) (B2) (B1) (B2) (A2) (B1) (A1) (B2)
                 (B1) (B2) (A1) (A1) (B2) (A1) (B1) (A2) (B2) (B1)
                 (A1) (A1) (B2) (A1) (A1) (A1) (B2) (B1) (A1) (B2)
                 (A1) (A1) (A1) (A1) (A1) (A1) (A1) (A1) (A1) (A1)
                 (A1) (A1) (A1) (A1) (A1) (A2) (A2) (A2) (B1) (B1)
                 (B1) (B1) (B1) (B1) (B1) (B2) (B2) (B2) (B2) (B2)
                 (B2) (B2) (B2) (B2)
 Beta  Orbitals:
       Occupied  (B2) (A1) (A1) (B2) (A1) (A1) (B1) (A1) (B2) (A1)
                 (A1) (B2) (A1) (A1) (B1) (A1) (A1) (B2) (B1) (A2)
                 (A1) (B2) (A1) (B1) (A2) (B2) (A1) (B2) (A1) (B2)
                 (B1) (A1) (B1) (B2) (A2) (A1) (B1) (A1) (B2) (B1)
                 (A1) (A1) (B2) (B1) (A1) (B2) (A1) (A1) (B1) (A2)
                 (B2) (A1) (B2) (A1) (A1)
       Virtual   (B1) (B2) (B1) (A2) (A1) (B1) (A1) (B2) (A1) (B2)
                 (B1) (A1) (A2) (B2) (B1) (A1) (B2) (A1) (B2) (A1)
                 (A2) (B1) (A1) (A1) (B2) (B1) (A1) (B2) (A2) (B1)
                 (A1) (B1) (A1) (B2) (B1) (B2) (A2) (B2) (B1) (A1)
                 (B2) (A1) (B2) (A1) (A2) (B1) (A1) (B1) (B2) (A1)
                 (A1) (A2) (B2) (A1) (B1) (B2) (B1) (A1) (B2) (A1)
                 (A2) (A1) (A1) (A2) (B1) (B2) (A2) (A1) (A1) (A2)
                 (B1) (A1) (B2) (B1) (A1) (B1) (B2) (A1) (B2) (A2)
[...]
 Frc consts  --     1.6503                 1.7877                 2.3875
 IR Inten    --     0.5846                16.7961                11.0844
 Atom AN      X      Y      Z        X      Y      Z        X      Y      Z
   1  14     0.45   0.00   0.00     0.00   0.14   0.00     0.00   0.00   0.02
   2  14    -0.06   0.00   0.60     0.00   0.38   0.00    -0.40   0.00  -0.19
   3  14    -0.19   0.00   0.00     0.00  -0.08   0.33     0.00   0.50   0.14
   4  14    -0.19   0.00   0.00     0.00  -0.08  -0.33     0.00  -0.50   0.14
   5  14     0.00   0.00   0.00     0.00   0.19   0.00     0.00   0.00   0.17
   6  14     0.03   0.00   0.00     0.00  -0.46   0.03     0.00  -0.12  -0.04
   7  14    -0.06   0.00  -0.60     0.00   0.38   0.00     0.40   0.00  -0.19
   8  14     0.03   0.00   0.00     0.00  -0.46  -0.03     0.00   0.12  -0.04
                    16                     17                     18
                    A1                     B2                     A1
 Frequencies --   397.5832               412.4168               429.2721
 Red. masses --    27.9769                27.9769                27.9769
 Frc consts  --     2.6056                 2.8036                 3.0375
 IR Inten    --     6.4193                24.5055                14.8975
 Atom AN      X      Y      Z        X      Y      Z        X      Y      Z
   1  14     0.00   0.00   0.71     0.00   0.01   0.00     0.00   0.00  -0.12
   2  14     0.30   0.00  -0.34     0.00  -0.21   0.00    -0.06   0.00  -0.03
   3  14     0.00   0.10   0.10     0.00  -0.12   0.50     0.00  -0.18   0.53
   4  14     0.00  -0.10   0.10     0.00  -0.12  -0.50     0.00   0.18   0.53
   5  14     0.00   0.00  -0.09     0.00   0.12   0.00     0.00   0.00  -0.44
   6  14     0.00   0.10  -0.07     0.00   0.26   0.35     0.00  -0.16  -0.22
   7  14    -0.30   0.00  -0.34     0.00  -0.21   0.00     0.06   0.00  -0.03
   8  14     0.00  -0.10  -0.07     0.00   0.26  -0.35     0.00   0.16  -0.22

 -------------------
 - Thermochemistry -
 -------------------
 Temperature   298.150 Kelvin.  Pressure   1.00000 Atm.
 Atom  1 has atomic number 14 and mass  27.97693
 Atom  2 has atomic number 14 and mass  27.97693
 Atom  3 has atomic number 14 and mass  27.97693
 Atom  4 has atomic number 14 and mass  27.97693
 Atom  5 has atomic number 14 and mass  27.97693
 Atom  6 has atomic number 14 and mass  27.97693
 Atom  7 has atomic number 14 and mass  27.97693
 Atom  8 has atomic number 14 and mass  27.97693
 Molecular mass:   223.81543 amu.
 Principal axes and moments of inertia in atomic units:
                           1         2         3
     EIGENVALUES --  1557.720032658.254193490.05193
           X            0.00000   0.00000   1.00000
           Y            0.00000   1.00000   0.00000
           Z            1.00000   0.00000   0.00000
 This molecule is an asymmetric top.
 Rotational symmetry number  2.
 Warning -- assumption of classical behavior for rotation
           may cause significant error
 Rotational temperatures (Kelvin)      0.05560     0.03258     0.02482
 Rotational constants (GHZ):           1.15858     0.67892     0.51711
 Zero-point vibrational energy      28303.9 (Joules/Mol)
                                    6.76478 (Kcal/Mol)
 Warning -- explicit consideration of  18 degrees of freedom as
           vibrations may cause significant error
 Vibrational temperatures:     87.02   148.79   186.81   195.67   239.92
          (Kelvin)            310.46   334.61   360.23   361.33   422.91
                              446.81   454.09   455.26   473.82   547.57
                              572.03   593.38   617.63
 
 Zero-point correction=                           0.010780 (Hartree/Particle)
 Thermal correction to Energy=                    0.022375
 Thermal correction to Enthalpy=                  0.023319
 Thermal correction to Gibbs Free Energy=        -0.027569
 Sum of electronic and zero-point Energies=          -2315.774443
 Sum of electronic and thermal Energies=             -2315.762848
 Sum of electronic and thermal Enthalpies=           -2315.761904
 Sum of electronic and thermal Free Energies=        -2315.812792
 
                     E (Thermal)             CV                S
                      KCal/Mol        Cal/Mol-Kelvin    Cal/Mol-Kelvin
 Total                   14.041             36.815            107.104
 Electronic               0.000              0.000              1.377
 Translational            0.889              2.981             42.120
 Rotational               0.889              2.981             29.670
 Vibrational             12.263             30.853             33.937
 Vibration  1             0.597              1.973              4.441
 Vibration  2             0.605              1.946              3.389
 Vibration  3             0.612              1.923              2.948
 Vibration  4             0.614              1.917              2.859
 Vibration  5             0.624              1.883              2.472
 Vibration  6             0.645              1.817              1.994
 Vibration  7             0.653              1.791              1.859
 Vibration  8             0.663              1.762              1.728
 Vibration  9             0.663              1.761              1.723
 Vibration 10             0.689              1.685              1.451
 Vibration 11             0.699              1.654              1.359
 Vibration 12             0.703              1.644              1.333
 Vibration 13             0.703              1.642              1.329
 Vibration 14             0.712              1.617              1.263
 Vibration 15             0.750              1.512              1.037
 Vibration 16             0.764              1.475              0.972
 Vibration 17             0.776              1.443              0.918
 Vibration 18             0.791              1.407              0.861
                       Q            Log10(Q)             Ln(Q)
 Total Bot       0.479547D+13         12.680832         29.198694
 Total V=0       0.435960D+18         17.639447         40.616327
 Vib (Bot)       0.267754D-01         -1.572264         -3.620272
 Vib (Bot)  1    0.341409D+01          0.533275          1.227910
 Vib (Bot)  2    0.198326D+01          0.297379          0.684740
 Vib (Bot)  3    0.157018D+01          0.195949          0.451190
 Vib (Bot)  4    0.149673D+01          0.175144          0.403283
 Vib (Bot)  5    0.120978D+01          0.082705          0.190435
 Vib (Bot)  6    0.918301D+00         -0.037015         -0.085230
 Vib (Bot)  7    0.845925D+00         -0.072668         -0.167324
 Vib (Bot)  8    0.779383D+00         -0.108249         -0.249252
 Vib (Bot)  9    0.776733D+00         -0.109728         -0.252659
 Vib (Bot) 10    0.649184D+00         -0.187632         -0.432039
 Vib (Bot) 11    0.608709D+00         -0.215590         -0.496414
 Vib (Bot) 12    0.597178D+00         -0.223896         -0.515541
 Vib (Bot) 13    0.595360D+00         -0.225220         -0.518588
 Vib (Bot) 14    0.567606D+00         -0.245953         -0.566328
 Vib (Bot) 15    0.474881D+00         -0.323415         -0.744690
 Vib (Bot) 16    0.449091D+00         -0.347666         -0.800529
 Vib (Bot) 17    0.428212D+00         -0.368341         -0.848137
 Vib (Bot) 18    0.406124D+00         -0.391341         -0.901097
 Vib (V=0)       0.243417D+04          3.386351          7.797362
 Vib (V=0)  1    0.395051D+01          0.596653          1.373843
 Vib (V=0)  2    0.254531D+01          0.405741          0.934253
 Vib (V=0)  3    0.214787D+01          0.332007          0.764475
 Vib (V=0)  4    0.207804D+01          0.317653          0.731424
 Vib (V=0)  5    0.180903D+01          0.257446          0.592790
 Vib (V=0)  6    0.154560D+01          0.189097          0.435412
 Vib (V=0)  7    0.148264D+01          0.171037          0.393827
 Vib (V=0)  8    0.142598D+01          0.154113          0.354859
 Vib (V=0)  9    0.142375D+01          0.153434          0.353294
 Vib (V=0) 10    0.131941D+01          0.120381          0.277188
 Vib (V=0) 11    0.128774D+01          0.109827          0.252885
 Vib (V=0) 12    0.127886D+01          0.106823          0.245968
 Vib (V=0) 13    0.127747D+01          0.106349          0.244879
 Vib (V=0) 14    0.125642D+01          0.099136          0.228269
 Vib (V=0) 15    0.118957D+01          0.075391          0.173595
 Vib (V=0) 16    0.117207D+01          0.068955          0.158774
 Vib (V=0) 17    0.115830D+01          0.063823          0.146958
 Vib (V=0) 18    0.114416D+01          0.058485          0.134667
 Electronic      0.200000D+01          0.301030          0.693147
 Translational   0.131610D+09          8.119290         18.695357
 Rotational      0.680417D+06          5.832775         13.430461
 ***** Axes restored to original set *****
 -------------------------------------------------------------------
 Center     Atomic                   Forces (Hartrees/Bohr)
 Number     Number              X              Y              Z
 -------------------------------------------------------------------
    1         14           0.000000000    0.000000000   -0.000071937
    2         14           0.000441320    0.000000000   -0.000030515
    3         14           0.000000000   -0.000038348    0.000027485
    4         14           0.000000000    0.000038348    0.000027485
    5         14           0.000000000    0.000000000   -0.000017759
    6         14           0.000000000    0.000133273    0.000047879
    7         14          -0.000441320    0.000000000   -0.000030515
    8         14           0.000000000   -0.000133273    0.000047879
 -------------------------------------------------------------------
 Cartesian Forces:  Max     0.000441320 RMS     0.000135622

 GradGradGradGradGradGradGradGradGradGradGradGradGradGradGradGradGradGrad
 Berny optimization.
 Internal  Forces:  Max     0.000227748 RMS     0.000045621
 Search for a local minimum.
 Step number   1 out of a maximum of   2
 All quantities printed in internal units (Hartrees-Bohrs-Radians)
 Second derivative matrix not updated -- analytic derivatives used.
     Eigenvalues ---    0.00029   0.00160   0.00811   0.01258   0.01779
     Eigenvalues ---    0.02195   0.02224   0.03003   0.03208   0.03386
     Eigenvalues ---    0.03956   0.04029   0.04292   0.04338   0.05326
     Eigenvalues ---    0.05670   0.05870   0.067961000.000001000.00000
     Eigenvalues --- 1000.000001000.000001000.000001000.000001000.00000
     Eigenvalues --- 1000.000001000.000001000.000001000.000001000.00000
     Eigenvalues --- 1000.000001000.000001000.000001000.000001000.00000
     Eigenvalues --- 1000.000001000.000001000.000001000.000001000.00000
     Eigenvalues --- 1000.000001000.000001000.000001000.000001000.00000
     Eigenvalues --- 1000.000001000.000001000.000001000.000001000.00000
     Eigenvalues --- 1000.000001000.000001000.000001000.00000
 Angle between quadratic step and forces=  12.03 degrees.
 Linear search not attempted -- first point.
 Iteration  1 RMS(Cart)=  0.00082378 RMS(Int)=  0.00000057
 Iteration  2 RMS(Cart)=  0.00000031 RMS(Int)=  0.00000037
 Variable       Old X    -DE/DX   Delta X   Delta X   Delta X     New X
                                 (Linear)    (Quad)   (Total)
    R1        4.60647   0.00003   0.00000   0.00095   0.00095   4.60742
    R2        4.89545   0.00004   0.00000   0.00232   0.00232   4.89777
    R3        4.60647   0.00003   0.00000   0.00095   0.00095   4.60742
    R4        4.89545   0.00004   0.00000   0.00232   0.00232   4.89777
    R5        4.74254   0.00006   0.00000   0.00231   0.00232   4.74486
    R6        4.74254   0.00006   0.00000   0.00231   0.00232   4.74486
    R7        4.83919   0.00007   0.00000   0.00249   0.00250   4.84169
    R8        5.09384   0.00023   0.00000   0.00669   0.00669   5.10053
    R9        4.83919   0.00007   0.00000   0.00249   0.00250   4.84169
   R10        4.65929  -0.00001   0.00000  -0.00073  -0.00073   4.65856
   R11        4.58566  -0.00001   0.00000  -0.00070  -0.00070   4.58497
   R12        4.74254   0.00006   0.00000   0.00231   0.00232   4.74486
   R13        4.56786  -0.00005   0.00000  -0.00098  -0.00098   4.56688
   R14        4.58566  -0.00001   0.00000  -0.00070  -0.00070   4.58497
   R15        4.56786  -0.00005   0.00000  -0.00098  -0.00098   4.56688
   R16        4.74254   0.00006   0.00000   0.00231   0.00232   4.74486
   R17        4.83919   0.00007   0.00000   0.00249   0.00250   4.84169
   R18        4.83919   0.00007   0.00000   0.00249   0.00250   4.84169
    A1        1.90607   0.00000   0.00000  -0.00020  -0.00020   1.90586
    A2        1.84886  -0.00004   0.00000  -0.00099  -0.00099   1.84787
    A3        1.84886  -0.00004   0.00000  -0.00099  -0.00099   1.84787
    A4        1.83854  -0.00004   0.00000  -0.00131  -0.00131   1.83722
    A5        1.83854  -0.00004   0.00000  -0.00131  -0.00131   1.83722
    A6        1.93918  -0.00002   0.00000  -0.00033  -0.00033   1.93884
    A7        1.91892   0.00000   0.00000   0.00006   0.00006   1.91898
    A8        1.94296   0.00001   0.00000   0.00055   0.00055   1.94350
    A9        1.91892   0.00000   0.00000   0.00006   0.00006   1.91898
   A10        2.98086   0.00001   0.00000   0.00055   0.00055   2.98141
   A11        1.91892   0.00000   0.00000   0.00006   0.00006   1.91898
   A12        1.94296   0.00001   0.00000   0.00055   0.00055   1.94350
   A13        2.98086   0.00001   0.00000   0.00055   0.00055   2.98141
   A14        1.91892   0.00000   0.00000   0.00006   0.00006   1.91898
   A15        1.81640  -0.00001   0.00000  -0.00044  -0.00044   1.81595
   A16        1.84886  -0.00004   0.00000  -0.00099  -0.00099   1.84787
   A17        1.84886  -0.00004   0.00000  -0.00099  -0.00099   1.84787
   A18        1.83854  -0.00004   0.00000  -0.00131  -0.00131   1.83722
   A19        1.83854  -0.00004   0.00000  -0.00131  -0.00131   1.83722
   A20        1.93918  -0.00002   0.00000  -0.00033  -0.00033   1.93884
   A21        1.81640  -0.00001   0.00000  -0.00044  -0.00044   1.81595
    D1        0.00000   0.00000   0.00000   0.00000   0.00000   0.00000
    D2        0.00000   0.00000   0.00000   0.00000   0.00000   0.00000
    D3       -2.33286   0.00001   0.00000   0.00031   0.00031  -2.33255
    D4       -1.19738  -0.00001   0.00000   0.00002   0.00002  -1.19736
    D5        2.33286  -0.00001   0.00000  -0.00031  -0.00031   2.33255
    D6        1.19738   0.00001   0.00000  -0.00002  -0.00002   1.19736
    D7        0.00000   0.00000   0.00000   0.00000   0.00000   0.00000
    D8        2.33286  -0.00001   0.00000  -0.00031  -0.00031   2.33255
    D9        1.19738   0.00001   0.00000  -0.00002  -0.00002   1.19736
   D10        0.00000   0.00000   0.00000   0.00000   0.00000   0.00000
   D11        0.00000   0.00000   0.00000   0.00000   0.00000   0.00000
   D12        0.00000   0.00000   0.00000   0.00000   0.00000   0.00000
   D13        0.00000   0.00000   0.00000   0.00000   0.00000   0.00000
   D14       -2.33286   0.00001   0.00000   0.00031   0.00031  -2.33255
   D15       -1.19738  -0.00001   0.00000   0.00002   0.00002  -1.19736
         Item               Value     Threshold  Converged?
 Maximum Force            0.000228     0.000450     YES
 RMS     Force            0.000046     0.000300     YES
 Maximum Displacement     0.003346     0.001800     NO 
 RMS     Displacement     0.000824     0.001200     YES
 Predicted change in Energy=-1.797139D-06
 GradGradGradGradGradGradGradGradGradGradGradGradGradGradGradGradGradGrad

 1\1\GINC-NODE24\Freq\UB3LYP\6-311+G(d)\Si8(1+,2)\TAM\17-Jun-2011\0\\#N
  Geom=AllCheck Guess=Read SCRF=Check GenChk UB3LYP/6-311+G(d) Freq\\si
 8-c\\1,2\Si,0.,0.,-2.5512805437\Si,1.3477712399,0.,-0.5201258989\Si,0.
 ,-1.2327943928,1.2009362804\Si,0.,1.2327943928,1.2009362804\Si,0.,0.,3
 .291088977\Si,0.,2.1117641253,-1.0507953409\Si,-1.3477712399,0.,-0.520
 1258989\Si,0.,-2.1117641253,-1.0507953409\\Version=AM64L-G03RevE.01\St
 ate=2-B1\HF=-2315.7852233\S2=0.75798\S2-1=0.\S2A=0.750042\RMSD=3.385e-
 09\RMSF=1.356e-04\ZeroPoint=0.0107804\Thermal=0.0223752\Dipole=0.,0.,0
 .101461\DipoleDeriv=0.1401085,0.,0.,0.,0.1099995,0.,0.,0.,0.517726,0.1
 01178,0.,0.2064568,0.,-0.2893861,0.,-0.0858719,0.,-0.2678987,0.0896728
 ,0.,0.,0.,-0.0329463,-0.239776,0.,-0.1290695,-0.0442585,0.0896728,0.,0
 .,0.,-0.0329463,0.239776,0.,0.1290695,-0.0442585,0.131958,0.,0.,0.,0.1
 73471,0.,0.,0.,0.766315,0.1731159,0.,0.,0.,0.6805972,-0.2610202,0.,-0.
 3053167,0.1701366,0.101178,0.,-0.2064568,0.,-0.2893862,0.,0.0858718,0.
 ,-0.2678987,0.1731159,0.,0.,0.,0.6805972,0.2610202,0.,0.3053167,0.1701
 367\Polar=159.5939936,-0.0000006,224.782566,-0.0000007,0.0000006,315.5
 495743\PG=C02V [C2(Si1Si1),SGV(Si4),SGV'(Si2)]\NImag=0\\0.03064545,0.,
 0.02842872,0.,0.,0.11483475,-0.01359183,0.,-0.01704673,0.08428869,0.,-
 0.00284869,0.,0.,0.07416870,-0.02517292,0.,-0.03783775,0.00130550,0.,0
 .07341875,-0.00420182,0.,0.,-0.00850191,-0.01094945,0.01317621,0.02039
 634,0.,0.00361929,-0.00476710,-0.00692456,-0.00899722,0.01169935,0.,0.
 08433416,0.,-0.00196966,-0.01087677,0.00496616,0.00842126,-0.01503422,
 0.,0.01063088,0.12715830,-0.00420182,0.,0.,-0.00850191,0.01094945,0.01
 317621,-0.00011809,0.,0.,0.02039634,0.,0.00361929,0.00476710,0.0069245
 6,-0.00899723,-0.01169935,0.,-0.04543061,0.00303924,0.,0.08433416,0.,0
 .00196966,-0.01087677,0.00496616,-0.00842126,-0.01503422,0.,-0.0030392
 4,0.00215285,0.,-0.01063088,0.12715830,0.00254699,0.,0.,-0.00000414,0.
 ,0.00173078,-0.00175302,0.,0.,-0.00175302,0.,0.,0.00378082,0.,-0.00208
 474,0.,0.,0.00195615,0.,0.,-0.00860325,-0.02036223,0.,-0.00860325,0.02
 036222,0.,0.01991388,0.,0.,-0.00556685,0.00457988,0.,-0.00588188,0.,-0
 .01609426,-0.03855865,0.,0.01609426,-0.03855865,0.,0.,0.08942825,0.001
 19743,0.,0.,-0.00432699,0.01940850,-0.00242856,0.00036372,0.,0.,0.0023
 1670,0.,0.,-0.00140675,0.,0.,0.01487276,0.,-0.01394259,-0.00642276,0.0
 0455659,-0.02426280,0.00558294,0.,-0.00994955,0.00504056,0.,-0.0059755
 9,0.01322132,0.,-0.00226747,-0.00138516,0.,0.08857145,0.,-0.01019130,-
 0.00591943,0.00093519,0.00676919,0.00263559,0.,0.00725267,0.00079824,0
 .,0.01738165,-0.05060553,0.,0.00062021,0.00250984,0.,-0.02511071,0.058
 02068,-0.01359183,0.,0.01704673,-0.04503490,0.,0.00064136,-0.00850191,
 0.00692456,-0.00496616,-0.00850191,-0.00692456,-0.00496616,-0.00000414
 ,0.,-0.00457988,-0.00432700,-0.00455659,-0.00093519,0.08428869,0.,-0.0
 0284869,0.,0.,-0.00675611,0.,0.01094945,-0.00899723,0.00842126,-0.0109
 4945,-0.00899722,-0.00842126,0.,0.00195615,0.,-0.01940850,-0.02426280,
 0.00676919,0.,0.07416870,0.02517292,0.,-0.03783775,-0.00064136,0.,-0.0
 0490188,-0.01317621,0.01169935,-0.01503422,-0.01317621,-0.01169935,-0.
 01503422,-0.00173078,0.,-0.00588188,0.00242856,0.00558294,0.00263559,-
 0.00130550,0.,0.07341876,0.00119743,0.,0.,-0.00432700,-0.01940850,-0.0
 0242856,0.00231670,0.,0.,0.00036372,0.,0.,-0.00140675,0.,0.,-0.0086898
 6,0.,0.,-0.00432699,0.01940850,0.00242856,0.01487276,0.,-0.01394259,0.
 00642276,-0.00455659,-0.02426280,-0.00558294,0.,-0.00597559,-0.0132213
 2,0.,-0.00994955,-0.00504056,0.,-0.00226747,0.00138516,0.,-0.00791066,
 -0.00349089,0.00455659,-0.02426280,-0.00558294,0.,0.08857145,0.,0.0101
 9130,-0.00591943,0.00093519,-0.00676919,0.00263559,0.,-0.01738165,-0.0
 5060553,0.,-0.00725267,0.00079824,0.,-0.00062021,0.00250984,0.,0.00349
 089,-0.01007499,-0.00093519,-0.00676919,0.00263559,0.,0.02511071,0.058
 02068\\0.,0.,0.00007194,-0.00044132,0.,0.00003052,0.,0.00003835,-0.000
 02748,0.,-0.00003835,-0.00002748,0.,0.,0.00001776,0.,-0.00013327,-0.00
 004788,0.00044132,0.,0.00003052,0.,0.00013327,-0.00004788\\\@


 BULLDOZER: SOMEONE WHO SLEEPS THROUGH SPEECHES.
 Job cpu time:  0 days  0 hours 36 minutes 13.4 seconds.
 File lengths (MBytes):  RWF=    157 Int=      0 D2E=      0 Chk=     10 Scr=      1
 Normal termination of Gaussian 03 at Fri Jun 17 17:08:39 2011.
