 Entering Gaussian System, Link 0=g03
 Initial command:
 /usr/local/chem/g03E01/l1.exe /temp0/tam/Gau-26476.inp -scrdir=/temp0/tam/
 Entering Link 1 = /usr/local/chem/g03E01/l1.exe PID=     26477.
  
 Copyright (c) 1988,1990,1992,1993,1995,1998,2003,2004,2007, Gaussian, Inc.
                  All Rights Reserved.
  
 This is the Gaussian(R) 03 program.  It is based on the
 the Gaussian(R) 98 system (copyright 1998, Gaussian, Inc.),
 the Gaussian(R) 94 system (copyright 1995, Gaussian, Inc.),
 the Gaussian 92(TM) system (copyright 1992, Gaussian, Inc.),
 the Gaussian 90(TM) system (copyright 1990, Gaussian, Inc.),
 the Gaussian 88(TM) system (copyright 1988, Gaussian, Inc.),
 the Gaussian 86(TM) system (copyright 1986, Carnegie Mellon
 University), and the Gaussian 82(TM) system (copyright 1983,
 Carnegie Mellon University). Gaussian is a federally registered
 trademark of Gaussian, Inc.
  
 This software contains proprietary and confidential information,
 including trade secrets, belonging to Gaussian, Inc.
  
 This software is provided under written license and may be
 used, copied, transmitted, or stored only in accord with that
 written license.
  
 The following legend is applicable only to US Government
 contracts under FAR:
  
                    RESTRICTED RIGHTS LEGEND
  
 Use, reproduction and disclosure by the US Government is
 subject to restrictions as set forth in subparagraphs (a)
 and (c) of the Commercial Computer Software - Restricted
 Rights clause in FAR 52.227-19.
  
 Gaussian, Inc.
 340 Quinnipiac St., Bldg. 40, Wallingford CT 06492
  
  
 ---------------------------------------------------------------
 Warning -- This program may not be used in any manner that
 competes with the business of Gaussian, Inc. or will provide
 assistance to any competitor of Gaussian, Inc.  The licensee
 of this program is prohibited from giving any competitor of
 Gaussian, Inc. access to this program.  By using this program,
 the user acknowledges that Gaussian, Inc. is engaged in the
 business of creating and licensing software in the field of
 computational chemistry and represents and warrants to the
 licensee that it is not a competitor of Gaussian, Inc. and that
 it will not use this program in any manner prohibited above.
 ---------------------------------------------------------------
  

 Cite this work as:
 Gaussian 03, Revision E.01,
 M. J. Frisch, G. W. Trucks, H. B. Schlegel, G. E. Scuseria, 
 M. A. Robb, J. R. Cheeseman, J. A. Montgomery, Jr., T. Vreven, 
 K. N. Kudin, J. C. Burant, J. M. Millam, S. S. Iyengar, J. Tomasi, 
 V. Barone, B. Mennucci, M. Cossi, G. Scalmani, N. Rega, 
 G. A. Petersson, H. Nakatsuji, M. Hada, M. Ehara, K. Toyota, 
 R. Fukuda, J. Hasegawa, M. Ishida, T. Nakajima, Y. Honda, O. Kitao, 
 H. Nakai, M. Klene, X. Li, J. E. Knox, H. P. Hratchian, J. B. Cross, 
 V. Bakken, C. Adamo, J. Jaramillo, R. Gomperts, R. E. Stratmann, 
 O. Yazyev, A. J. Austin, R. Cammi, C. Pomelli, J. W. Ochterski, 
 P. Y. Ayala, K. Morokuma, G. A. Voth, P. Salvador, J. J. Dannenberg, 
 V. G. Zakrzewski, S. Dapprich, A. D. Daniels, M. C. Strain, 
 O. Farkas, D. K. Malick, A. D. Rabuck, K. Raghavachari, 
 J. B. Foresman, J. V. Ortiz, Q. Cui, A. G. Baboul, S. Clifford, 
 J. Cioslowski, B. B. Stefanov, G. Liu, A. Liashenko, P. Piskorz, 
 I. Komaromi, R. L. Martin, D. J. Fox, T. Keith, M. A. Al-Laham, 
 C. Y. Peng, A. Nanayakkara, M. Challacombe, P. M. W. Gill, 
 B. Johnson, W. Chen, M. W. Wong, C. Gonzalez, and J. A. Pople, 
 Gaussian, Inc., Wallingford CT, 2004.
 
 ******************************************
 Gaussian 03:  AM64L-G03RevE.01 11-Sep-2007
                 4-Apr-2011 
 ******************************************
 %NprocShared=4
 Will use up to    4 processors via shared memory.
 %mem=3750MB
 %chk=S9L-ne-d-01
 ----------------------------------------------------------------------
 # b3lyp/LANL2DZ opt=(calcall,noeigentest,maxcycle=500) scfcyc=500 scf=
 xqc
 ----------------------------------------------------------------------
 1/6=500,10=4,11=1,14=-1,18=20,26=3,38=1/1,3;
 2/9=110,17=6,18=5,40=1/2;
 3/5=6,6=3,11=2,16=1,25=1,30=1,74=-5/1,2,3;
 4//1;
 5/5=2,7=500,8=3,13=1,38=5/2,8;
 8/6=4,10=90,11=11/1;
 11/6=1,8=1,9=11,15=111,16=1/1,2,10;
 10/6=1/2;
 6/7=2,8=2,9=2,10=2,18=1,28=1/1;
 7/10=1,25=1/1,2,3,16;
 1/6=500,10=4,11=1,14=-1,18=20/3(3);
 2/9=110/2;
 7/8=1,9=1,25=1,44=-1/16;
 99//99;
 2/9=110/2;
 3/5=6,6=3,11=2,16=1,25=1,30=1,74=-5/1,2,3;
 4/5=5,16=3/1;
 5/5=2,7=500,8=3,13=1,38=5/2,8;
 8/6=4,10=90,11=11/1;
 11/6=1,8=1,9=11,15=111,16=1/1,2,10;
 10/6=1/2;
 7/10=1,25=1/1,2,3,16;
 1/6=500,10=4,11=1,14=-1,18=20/3(-8);
 2/9=110/2;
 6/7=2,8=2,9=2,10=2,18=1,19=2,28=1/1;
 7/8=1,9=1,25=1,44=-1/16;
 99//99;
 -----
 si9-n
 -----
 Symbolic Z-matrix:
 Charge =  0 Multiplicity = 1
 Si                   -2.37614  -0.74475  -0.43767 
 Si                   -0.57279  -2.29034   0.04884 
 Si                   -1.44746   1.52796   0.09421 
 Si                   -0.78339  -0.2762    1.50188 
 Si                   -0.38694  -0.10211  -1.56183 
 Si                    1.61867  -1.01327   0.02832 
 Si                    1.07345   1.52036   0.09282 
 Si                    1.56607   0.21505   2.05377 
 Si                    1.94298   0.40579  -1.84652 
 

 GradGradGradGradGradGradGradGradGradGradGradGradGradGradGradGradGradGrad
 Berny optimization.
 Initialization pass.
                           ----------------------------
                           !    Initial Parameters    !
                           ! (Angstroms and Degrees)  !
 --------------------------                            --------------------------
 ! Name  Definition              Value          Derivative Info.                !
 --------------------------------------------------------------------------------
 ! R1    R(1,2)                  2.4244         calculate D2E/DX2 analytically  !
 ! R2    R(1,3)                  2.5121         calculate D2E/DX2 analytically  !
 ! R3    R(1,4)                  2.5531         calculate D2E/DX2 analytically  !
 ! R4    R(1,5)                  2.3735         calculate D2E/DX2 analytically  !
 ! R5    R(2,4)                  2.4925         calculate D2E/DX2 analytically  !
 ! R6    R(2,5)                  2.7234         calculate D2E/DX2 analytically  !
 ! R7    R(2,6)                  2.5365         calculate D2E/DX2 analytically  !
 ! R8    R(3,4)                  2.3827         calculate D2E/DX2 analytically  !
 ! R9    R(3,5)                  2.5543         calculate D2E/DX2 analytically  !
 ! R10   R(3,7)                  2.5209         calculate D2E/DX2 analytically  !
 ! R11   R(4,8)                  2.4629         calculate D2E/DX2 analytically  !
 ! R12   R(5,6)                  2.7169         calculate D2E/DX2 analytically  !
 ! R13   R(5,7)                  2.7392         calculate D2E/DX2 analytically  !
 ! R14   R(5,9)                  2.4016         calculate D2E/DX2 analytically  !
 ! R15   R(6,7)                  2.5924         calculate D2E/DX2 analytically  !
 ! R16   R(6,8)                  2.3694         calculate D2E/DX2 analytically  !
 ! R17   R(6,9)                  2.3736         calculate D2E/DX2 analytically  !
 ! R18   R(7,8)                  2.4066         calculate D2E/DX2 analytically  !
 ! R19   R(7,9)                  2.3999         calculate D2E/DX2 analytically  !
 ! A1    A(2,1,3)              105.0283         calculate D2E/DX2 analytically  !
 ! A2    A(4,1,5)               77.7182         calculate D2E/DX2 analytically  !
 ! A3    A(1,2,6)              108.6665         calculate D2E/DX2 analytically  !
 ! A4    A(4,2,5)               72.6178         calculate D2E/DX2 analytically  !
 ! A5    A(4,2,6)               70.7837         calculate D2E/DX2 analytically  !
 ! A6    A(1,3,7)              111.5207         calculate D2E/DX2 analytically  !
 ! A7    A(4,3,5)               77.5317         calculate D2E/DX2 analytically  !
 ! A8    A(4,3,7)               73.7008         calculate D2E/DX2 analytically  !
 ! A9    A(1,4,8)              143.3174         calculate D2E/DX2 analytically  !
 ! A10   A(2,4,3)              106.9183         calculate D2E/DX2 analytically  !
 ! A11   A(2,4,8)              102.1933         calculate D2E/DX2 analytically  !
 ! A12   A(3,4,8)              104.313          calculate D2E/DX2 analytically  !
 ! A13   A(1,5,6)              104.517          calculate D2E/DX2 analytically  !
 ! A14   A(1,5,7)              108.7293         calculate D2E/DX2 analytically  !
 ! A15   A(1,5,9)              157.8924         calculate D2E/DX2 analytically  !
 ! A16   A(2,5,3)               95.7963         calculate D2E/DX2 analytically  !
 ! A17   A(2,5,7)               98.9197         calculate D2E/DX2 analytically  !
 ! A18   A(2,5,9)              107.8325         calculate D2E/DX2 analytically  !
 ! A19   A(3,5,6)               98.1093         calculate D2E/DX2 analytically  !
 ! A20   A(3,5,9)              110.1636         calculate D2E/DX2 analytically  !
 ! A21   A(2,6,7)              108.0683         calculate D2E/DX2 analytically  !
 ! A22   A(2,6,8)              103.5864         calculate D2E/DX2 analytically  !
 ! A23   A(2,6,9)              115.1785         calculate D2E/DX2 analytically  !
 ! A24   A(5,6,8)              108.0639         calculate D2E/DX2 analytically  !
 ! A25   A(8,6,9)              111.6118         calculate D2E/DX2 analytically  !
 ! A26   A(3,7,6)              102.3142         calculate D2E/DX2 analytically  !
 ! A27   A(3,7,8)              101.8808         calculate D2E/DX2 analytically  !
 ! A28   A(3,7,9)              111.3564         calculate D2E/DX2 analytically  !
 ! A29   A(5,7,8)              106.2646         calculate D2E/DX2 analytically  !
 ! A30   A(8,7,9)              109.4139         calculate D2E/DX2 analytically  !
 ! A31   A(4,8,6)               74.1108         calculate D2E/DX2 analytically  !
 ! A32   A(4,8,7)               74.3556         calculate D2E/DX2 analytically  !
 ! D1    D(3,1,2,6)            -20.6558         calculate D2E/DX2 analytically  !
 ! D2    D(2,1,3,7)             20.6453         calculate D2E/DX2 analytically  !
 ! D3    D(5,1,4,8)             -8.8523         calculate D2E/DX2 analytically  !
 ! D4    D(4,1,5,6)             33.3333         calculate D2E/DX2 analytically  !
 ! D5    D(4,1,5,7)            -25.9718         calculate D2E/DX2 analytically  !
 ! D6    D(4,1,5,9)             13.932          calculate D2E/DX2 analytically  !
 ! D7    D(5,2,4,3)             21.1013         calculate D2E/DX2 analytically  !
 ! D8    D(5,2,4,8)            -88.1731         calculate D2E/DX2 analytically  !
 ! D9    D(6,2,4,3)             86.8636         calculate D2E/DX2 analytically  !
 ! D10   D(6,2,4,8)            -22.4108         calculate D2E/DX2 analytically  !
 ! D11   D(4,2,5,3)            -18.8419         calculate D2E/DX2 analytically  !
 ! D12   D(4,2,5,7)             38.3438         calculate D2E/DX2 analytically  !
 ! D13   D(4,2,5,9)             94.5247         calculate D2E/DX2 analytically  !
 ! D14   D(1,2,6,7)             14.0403         calculate D2E/DX2 analytically  !
 ! D15   D(1,2,6,8)             74.2054         calculate D2E/DX2 analytically  !
 ! D16   D(1,2,6,9)            -47.9566         calculate D2E/DX2 analytically  !
 ! D17   D(4,2,6,7)            -36.6805         calculate D2E/DX2 analytically  !
 ! D18   D(4,2,6,8)             23.4847         calculate D2E/DX2 analytically  !
 ! D19   D(4,2,6,9)            -98.6773         calculate D2E/DX2 analytically  !
 ! D20   D(5,3,4,2)            -22.0355         calculate D2E/DX2 analytically  !
 ! D21   D(5,3,4,8)             85.7493         calculate D2E/DX2 analytically  !
 ! D22   D(7,3,4,2)            -89.6518         calculate D2E/DX2 analytically  !
 ! D23   D(7,3,4,8)             18.1331         calculate D2E/DX2 analytically  !
 ! D24   D(4,3,5,2)             19.2804         calculate D2E/DX2 analytically  !
 ! D25   D(4,3,5,6)            -36.7042         calculate D2E/DX2 analytically  !
 ! D26   D(4,3,5,9)            -92.1384         calculate D2E/DX2 analytically  !
 ! D27   D(1,3,7,6)            -11.7161         calculate D2E/DX2 analytically  !
 ! D28   D(1,3,7,8)            -69.5526         calculate D2E/DX2 analytically  !
 ! D29   D(1,3,7,9)             46.9971         calculate D2E/DX2 analytically  !
 ! D30   D(4,3,7,6)             39.4532         calculate D2E/DX2 analytically  !
 ! D31   D(4,3,7,8)            -18.3833         calculate D2E/DX2 analytically  !
 ! D32   D(4,3,7,9)             98.1664         calculate D2E/DX2 analytically  !
 ! D33   D(1,4,8,6)            -27.1725         calculate D2E/DX2 analytically  !
 ! D34   D(1,4,8,7)             41.4905         calculate D2E/DX2 analytically  !
 ! D35   D(2,4,8,6)             23.6222         calculate D2E/DX2 analytically  !
 ! D36   D(2,4,8,7)             92.2852         calculate D2E/DX2 analytically  !
 ! D37   D(3,4,8,6)            -87.625          calculate D2E/DX2 analytically  !
 ! D38   D(3,4,8,7)            -18.962          calculate D2E/DX2 analytically  !
 ! D39   D(1,5,6,8)            -66.9168         calculate D2E/DX2 analytically  !
 ! D40   D(3,5,6,8)             -4.7103         calculate D2E/DX2 analytically  !
 ! D41   D(1,5,7,8)             60.2485         calculate D2E/DX2 analytically  !
 ! D42   D(2,5,7,8)              2.9203         calculate D2E/DX2 analytically  !
 ! D43   D(2,6,7,3)             -1.2317         calculate D2E/DX2 analytically  !
 ! D44   D(2,6,8,4)            -23.325          calculate D2E/DX2 analytically  !
 ! D45   D(5,6,8,4)             41.6187         calculate D2E/DX2 analytically  !
 ! D46   D(9,6,8,4)            101.1834         calculate D2E/DX2 analytically  !
 ! D47   D(3,7,8,4)             17.7048         calculate D2E/DX2 analytically  !
 ! D48   D(5,7,8,4)            -42.0368         calculate D2E/DX2 analytically  !
 ! D49   D(9,7,8,4)           -100.2465         calculate D2E/DX2 analytically  !
 --------------------------------------------------------------------------------
 Trust Radius=3.00D-01 FncErr=1.00D-07 GrdErr=1.00D-06
 Number of steps in this run= 100 maximum allowed number of steps= 100.
 GradGradGradGradGradGradGradGradGradGradGradGradGradGradGradGradGradGrad

                          Input orientation:                          
 ---------------------------------------------------------------------
 Center     Atomic     Atomic              Coordinates (Angstroms)
 Number     Number      Type              X           Y           Z
 ---------------------------------------------------------------------
    1         14             0       -2.376139   -0.744754   -0.437669
    2         14             0       -0.572793   -2.290339    0.048836
    3         14             0       -1.447460    1.527957    0.094214
    4         14             0       -0.783394   -0.276201    1.501878
    5         14             0       -0.386943   -0.102105   -1.561825
    6         14             0        1.618672   -1.013273    0.028321
    7         14             0        1.073452    1.520355    0.092821
    8         14             0        1.566067    0.215045    2.053771
    9         14             0        1.942980    0.405788   -1.846515
 ---------------------------------------------------------------------
                    Distance matrix (angstroms):
                    1          2          3          4          5
     1  Si   0.000000
     2  Si   2.424371   0.000000
     3  Si   2.512083   3.917459   0.000000
     4  Si   2.553081   2.492476   2.382748   0.000000
     5  Si   2.373526   2.723442   2.554264   3.094149   0.000000
     6  Si   4.030852   2.536501   3.982883   2.912828   2.716852
     7  Si   4.160747   4.151319   2.520924   2.942946   2.739157
     8  Si   4.761247   3.856350   3.826872   2.462900   4.121573
     9  Si   4.686511   4.146151   4.064576   4.371494   2.401571
                    6          7          8          9
     6  Si   0.000000
     7  Si   2.592431   0.000000
     8  Si   2.369384   2.406622   0.000000
     9  Si   2.373588   2.399867   3.923095   0.000000
 Stoichiometry    Si9
 Framework group  C1[X(Si9)]
 Deg. of freedom    21
 Full point group                 C1
 Largest Abelian subgroup         C1      NOp   1
 Largest concise Abelian subgroup C1      NOp   1
                         Standard orientation:                         
 ---------------------------------------------------------------------
 Center     Atomic     Atomic              Coordinates (Angstroms)
 Number     Number      Type              X           Y           Z
 ---------------------------------------------------------------------
    1         14             0        2.536541   -0.420124    0.029248
    2         14             0        1.242220    0.204563   -1.923206
    3         14             0        0.997641   -0.043492    1.978734
    4         14             0        0.862587    1.502407    0.170574
    5         14             0        0.454789   -1.559790   -0.003793
    6         14             0       -1.221261    0.121697   -1.324680
    7         14             0       -1.417515   -0.008102    1.257051
    8         14             0       -1.533577    2.050388    0.015689
    9         14             0       -1.921426   -1.847547   -0.199617
 ---------------------------------------------------------------------
 Rotational constants (GHZ):      0.7666661      0.5925191      0.5643155
 Standard basis: LANL2DZ (5D, 7F)
 There are    72 symmetry adapted basis functions of A   symmetry.
 Integral buffers will be    131072 words long.
 Raffenetti 2 integral format.
 Two-electron integral symmetry is turned on.
    72 basis functions,   108 primitive gaussians,    72 cartesian basis functions
    18 alpha electrons       18 beta electrons
       nuclear repulsion energy       101.6900889375 Hartrees.
 NAtoms=    9 NActive=    9 NUniq=    9 SFac= 7.50D-01 NAtFMM=   80 NAOKFM=F Big=F
 One-electron integrals computed using PRISM.
   1 Symmetry operations used in ECPInt.
 ECPInt:  NShTT=     666 NPrTT=    1503 LenC2=     667 LenP2D=    1473.
 LDataN:  DoStor=F MaxTD1= 3 Len=   28
 LDataN:  DoStor=T MaxTD1= 3 Len=   28
 NBasis=    72 RedAO= T  NBF=    72
 NBsUse=    72 1.00D-06 NBFU=    72
 Harris functional with IExCor=  402 diagonalized for initial guess.
 ExpMin= 8.85D-02 ExpMax= 2.58D+00 ExpMxC= 2.58D+00 IAcc=2 IRadAn=         4 AccDes= 0.00D+00
 HarFok:  IExCor= 402 AccDes= 0.00D+00 IRadAn=         4 IDoV=1
 ScaDFX=  1.000000  1.000000  1.000000  1.000000
 Initial guess orbital symmetries:
       Occupied  (A) (A) (A) (A) (A) (A) (A) (A) (A) (A) (A) (A)
                 (A) (A) (A) (A) (A) (A)
       Virtual   (A) (A) (A) (A) (A) (A) (A) (A) (A) (A) (A) (A)
                 (A) (A) (A) (A) (A) (A) (A) (A) (A) (A) (A) (A)
                 (A) (A) (A) (A) (A) (A) (A) (A) (A) (A) (A) (A)
                 (A) (A) (A) (A) (A) (A) (A) (A) (A) (A) (A) (A)
                 (A) (A) (A) (A) (A) (A)
 The electronic state of the initial guess is 1-A.
 Requested convergence on RMS density matrix=1.00D-08 within 128 cycles.
 Requested convergence on MAX density matrix=1.00D-06.
 Requested convergence on             energy=1.00D-06.
 No special actions if energy rises.
 Keep R1 integrals in memory in canonical form, NReq=     5254974.
 Integral accuracy reduced to 1.0D-05 until final iterations.
 Initial convergence to 1.0D-05 achieved.  Increase integral accuracy.
 SCF Done:  E(RB+HF-LYP) =  -34.6961601968     A.U. after   19 cycles
             Convg  =    0.5257D-08             -V/T =  3.5487
             S**2   =   0.0000
 QCSCF skips out because SCF is already converged.
 Range of M.O.s used for correlation:     1    72
 NBasis=    72 NAE=    18 NBE=    18 NFC=     0 NFV=     0
 NROrb=     72 NOA=    18 NOB=    18 NVA=    54 NVB=    54
   1 Symmetry operations used in ECPInt.
 ECPInt:  NShTT=     666 NPrTT=    1503 LenC2=     667 LenP2D=    1473.
 LDataN:  DoStor=F MaxTD1= 4 Len=   56
 LDataN:  DoStor=T MaxTD1= 4 Len=   56
 Symmetrizing basis deriv contribution to polar:
 IMax=3 JMax=2 DiffMx= 0.00D+00
 G2DrvN: will do   10 centers at a time, making    1 passes doing MaxLOS=1.
 FoFDir/FoFCou used for L=0 through L=1.
 DoAtom=TTTTTTTTT
          Differentiating once with respect to electric field.
                with respect to dipole field.
          Differentiating once with respect to nuclear coordinates.
          Store integrals in memory, NReq=     4257025.
          There are  30 degrees of freedom in the 1st order CPHF.
    27 vectors were produced by pass  0.
 AX will form  27 AO Fock derivatives at one time.
    27 vectors were produced by pass  1.
    27 vectors were produced by pass  2.
    27 vectors were produced by pass  3.
    27 vectors were produced by pass  4.
    27 vectors were produced by pass  5.
    19 vectors were produced by pass  6.
     3 vectors were produced by pass  7.
     3 vectors were produced by pass  8.
 Inv2:  IOpt= 1 Iter= 1 AM= 2.35D-15 Conv= 1.00D-12.
 Inverted reduced A of dimension  187 with in-core refinement.
 Isotropic polarizability for W=    0.000000      260.01 Bohr**3.
 End of Minotr Frequency-dependent properties file   721 does not exist.

 **********************************************************************

            Population analysis using the SCF density.

 **********************************************************************

 Orbital symmetries:
       Occupied  (A) (A) (A) (A) (A) (A) (A) (A) (A) (A) (A) (A)
                 (A) (A) (A) (A) (A) (A)
       Virtual   (A) (A) (A) (A) (A) (A) (A) (A) (A) (A) (A) (A)
                 (A) (A) (A) (A) (A) (A) (A) (A) (A) (A) (A) (A)
                 (A) (A) (A) (A) (A) (A) (A) (A) (A) (A) (A) (A)
                 (A) (A) (A) (A) (A) (A) (A) (A) (A) (A) (A) (A)
                 (A) (A) (A) (A) (A) (A)
 The electronic state is 1-A.
 Alpha  occ. eigenvalues --   -0.74445  -0.64690  -0.58892  -0.57280  -0.47119
 Alpha  occ. eigenvalues --   -0.45569  -0.44045  -0.41810  -0.36142  -0.34385
 Alpha  occ. eigenvalues --   -0.29861  -0.29678  -0.28273  -0.26221  -0.25911
 Alpha  occ. eigenvalues --   -0.25574  -0.25109  -0.23768
 Alpha virt. eigenvalues --   -0.13588  -0.12678  -0.12321  -0.09427  -0.08181
 Alpha virt. eigenvalues --   -0.07464  -0.05750  -0.03630  -0.02634  -0.02338
 Alpha virt. eigenvalues --   -0.00627   0.01301   0.02468   0.02689   0.04023
 Alpha virt. eigenvalues --    0.05053   0.06909   0.07267   0.26675   0.27161
 Alpha virt. eigenvalues --    0.28114   0.28239   0.28643   0.28727   0.30129
 Alpha virt. eigenvalues --    0.30405   0.30553   0.30962   0.31363   0.32139
 Alpha virt. eigenvalues --    0.32452   0.33490   0.34502   0.35902   0.36353
 Alpha virt. eigenvalues --    0.37336   0.38430   0.38718   0.39663   0.40054
 Alpha virt. eigenvalues --    0.40508   0.42377   0.44164   0.44578   0.45773
 Alpha virt. eigenvalues --    9.47442  10.33028  11.33542  11.65042  11.83353
 Alpha virt. eigenvalues --   12.28710  12.66522  12.78769  13.29509
          Condensed to atoms (all electrons):
              1          2          3          4          5          6
     1  Si   3.859543   0.024767   0.018604  -0.012862   0.004626  -0.041160
     2  Si   0.024767   3.936910  -0.039181   0.019343  -0.014799   0.056767
     3  Si   0.018604  -0.039181   3.986392   0.020292  -0.014841  -0.032787
     4  Si  -0.012862   0.019343   0.020292   4.388916  -0.103999  -0.073443
     5  Si   0.004626  -0.014799  -0.014841  -0.103999   4.510746  -0.090973
     6  Si  -0.041160   0.056767  -0.032787  -0.073443  -0.090973   4.263688
     7  Si  -0.029462  -0.024285   0.043986  -0.061381  -0.075305  -0.123323
     8  Si   0.004041  -0.031759  -0.033793   0.058353  -0.021200   0.102473
     9  Si   0.003256  -0.019098  -0.023965  -0.008431   0.023806   0.109712
              7          8          9
     1  Si  -0.029462   0.004041   0.003256
     2  Si  -0.024285  -0.031759  -0.019098
     3  Si   0.043986  -0.033793  -0.023965
     4  Si  -0.061381   0.058353  -0.008431
     5  Si  -0.075305  -0.021200   0.023806
     6  Si  -0.123323   0.102473   0.109712
     7  Si   4.212103   0.097585   0.097694
     8  Si   0.097585   3.651917  -0.040004
     9  Si   0.097694  -0.040004   3.651278
 Mulliken atomic charges:
              1
     1  Si   0.168648
     2  Si   0.091334
     3  Si   0.075293
     4  Si  -0.226788
     5  Si  -0.218061
     6  Si  -0.170953
     7  Si  -0.137612
     8  Si   0.212387
     9  Si   0.205751
 Sum of Mulliken charges=   0.00000
 Atomic charges with hydrogens summed into heavy atoms:
              1
     1  Si   0.168648
     2  Si   0.091334
     3  Si   0.075293
     4  Si  -0.226788
     5  Si  -0.218061
     6  Si  -0.170953
     7  Si  -0.137612
     8  Si   0.212387
     9  Si   0.205751
 Sum of Mulliken charges=   0.00000
 APT atomic charges:
              1
     1  Si   0.229594
     2  Si   0.049136
     3  Si   0.053125
     4  Si  -0.238984
     5  Si  -0.191578
     6  Si  -0.149770
     7  Si  -0.100908
     8  Si   0.166872
     9  Si   0.182512
 Sum of APT charges=   0.00000
 APT Atomic charges with hydrogens summed into heavy atoms:
              1
     1  Si   0.229594
     2  Si   0.049136
     3  Si   0.053125
     4  Si  -0.238984
     5  Si  -0.191578
     6  Si  -0.149770
     7  Si  -0.100908
     8  Si   0.166872
     9  Si   0.182512
 Sum of APT charges=   0.00000
 Electronic spatial extent (au):  <R**2>=   868.7441
 Charge=     0.0000 electrons
 Dipole moment (field-independent basis, Debye):
    X=    -0.0050    Y=    -0.2264    Z=    -0.4012  Tot=     0.4607
 Quadrupole moment (field-independent basis, Debye-Ang):
   XX=  -109.0626   YY=  -113.5265   ZZ=  -119.1773
   XY=    -0.6867   XZ=    -1.5819   YZ=     0.3618
 Traceless Quadrupole moment (field-independent basis, Debye-Ang):
   XX=     4.8595   YY=     0.3957   ZZ=    -5.2552
   XY=    -0.6867   XZ=    -1.5819   YZ=     0.3618
 Octapole moment (field-independent basis, Debye-Ang**2):
  XXX=    -2.8634  YYY=    -2.5338  ZZZ=    -4.2472  XYY=     4.6381
  XXY=    -0.7511  XXZ=    -1.0100  XZZ=    -8.9175  YZZ=    -0.4394
  YYZ=     0.2427  XYZ=     1.1094
 Hexadecapole moment (field-independent basis, Debye-Ang**3):
 XXXX= -1585.8220 YYYY= -1193.4018 ZZZZ= -1136.1509 XXXY=    -5.7865
 XXXZ=    -6.2901 YYYX=    -0.3239 YYYZ=    -4.7711 ZZZX=    -9.7808
 ZZZY=     8.7481 XXYY=  -464.9468 XXZZ=  -474.2886 YYZZ=  -349.7921
 XXYZ=     1.6504 YYXZ=    -2.3325 ZZXY=    -0.7905
 N-N= 1.016900889375D+02 E-N=-2.660702662974D+02  KE= 1.361322909607D+01
  Exact polarizability: 291.608   2.126 251.726  -0.683   0.163 236.702
 Approx polarizability:1016.642  20.880 875.881 -14.290   1.720 775.595
   1 Symmetry operations used in ECPInt.
 ECPInt:  NShTT=     666 NPrTT=    1503 LenC2=     667 LenP2D=    1503.
 LDataN:  DoStor=F MaxTD1= 5 Len=  102
 LDataN:  DoStor=T MaxTD1= 5 Len=  102
 ***** Axes restored to original set *****
 -------------------------------------------------------------------
 Center     Atomic                   Forces (Hartrees/Bohr)
 Number     Number              X              Y              Z
 -------------------------------------------------------------------
    1         14          -0.023797332   -0.004378914   -0.008283563
    2         14           0.009209243   -0.024826229    0.003416602
    3         14          -0.018767745    0.040325790    0.003788915
    4         14          -0.006687855   -0.008105318    0.025527200
    5         14          -0.004347884   -0.003727090   -0.026095171
    6         14           0.023722772   -0.029140388    0.000205601
    7         14           0.006336748    0.027370140    0.001126884
    8         14           0.005078666    0.001057824    0.010623857
    9         14           0.009253388    0.001424186   -0.010310325
 -------------------------------------------------------------------
 Cartesian Forces:  Max     0.040325790 RMS     0.016523559

 GradGradGradGradGradGradGradGradGradGradGradGradGradGradGradGradGradGrad
 Berny optimization.
 Internal  Forces:  Max     0.018232689 RMS     0.004966919
 Search for a local minimum.
 Step number   1 out of a maximum of 100
 All quantities printed in internal units (Hartrees-Bohrs-Radians)
 Second derivative matrix not updated -- analytic derivatives used.
     Eigenvalues ---    0.00169   0.00405   0.00763   0.01356   0.01738
     Eigenvalues ---    0.01990   0.02563   0.02595   0.02865   0.03413
     Eigenvalues ---    0.03594   0.04165   0.04360   0.04896   0.05454
     Eigenvalues ---    0.05888   0.06447   0.06601   0.06782   0.07338
     Eigenvalues ---    0.080681000.000001000.000001000.000001000.00000
     Eigenvalues --- 1000.000001000.000001000.000001000.000001000.00000
     Eigenvalues --- 1000.000001000.000001000.000001000.000001000.00000
     Eigenvalues --- 1000.000001000.000001000.000001000.000001000.00000
     Eigenvalues --- 1000.000001000.000001000.000001000.000001000.00000
     Eigenvalues --- 1000.000001000.000001000.000001000.000001000.00000
     Eigenvalues --- 1000.000001000.000001000.000001000.000001000.00000
     Eigenvalues --- 1000.000001000.000001000.000001000.000001000.00000
     Eigenvalues --- 1000.000001000.000001000.000001000.000001000.00000
     Eigenvalues --- 1000.000001000.000001000.000001000.000001000.00000
     Eigenvalues --- 1000.000001000.000001000.000001000.000001000.00000
     Eigenvalues --- 1000.000001000.000001000.000001000.000001000.00000
     Eigenvalues --- 1000.000001000.000001000.000001000.000001000.00000
     Eigenvalues --- 1000.000001000.000001000.000001000.000001000.00000
     Eigenvalues --- 1000.000001000.000001000.000001000.000001000.00000
     Eigenvalues --- 1000.000001000.000001000.000001000.000001000.00000
 RFO step:  Lambda=-3.02061521D-02.
 Linear search not attempted -- first point.
 Maximum step size (   0.300) exceeded in Quadratic search.
    -- Step size scaled by   0.478
 Iteration  1 RMS(Cart)=  0.01790220 RMS(Int)=  0.00019092
 Iteration  2 RMS(Cart)=  0.00012535 RMS(Int)=  0.00010710
 Iteration  3 RMS(Cart)=  0.00000002 RMS(Int)=  0.00010710
 Variable       Old X    -DE/DX   Delta X   Delta X   Delta X     New X
                                 (Linear)    (Quad)   (Total)
    R1        4.58140   0.01375   0.00000   0.07591   0.07592   4.65732
    R2        4.74715   0.01242   0.00000   0.07889   0.07897   4.82612
    R3        4.82462   0.00680   0.00000   0.04891   0.04896   4.87358
    R4        4.48531   0.00769   0.00000   0.02784   0.02760   4.51292
    R5        4.71010   0.01051   0.00000   0.05590   0.05586   4.76596
    R6        5.14656   0.00919   0.00000   0.07154   0.07150   5.21806
    R7        4.79329   0.00601   0.00000   0.03543   0.03548   4.82877
    R8        4.50274   0.01823   0.00000   0.08335   0.08332   4.58606
    R9        4.82686   0.01713   0.00000   0.11040   0.11056   4.93742
   R10        4.76386   0.01221   0.00000   0.06229   0.06235   4.82621
   R11        4.65421   0.00666   0.00000   0.04043   0.04048   4.69468
   R12        5.13411   0.01141   0.00000   0.09010   0.09024   5.22435
   R13        5.17626   0.00596   0.00000   0.06000   0.05975   5.23601
   R14        4.53831   0.00628   0.00000   0.03202   0.03193   4.57025
   R15        4.89898   0.01659   0.00000   0.10626   0.10634   5.00533
   R16        4.47749   0.00834   0.00000   0.04087   0.04103   4.51851
   R17        4.48543   0.00535   0.00000   0.03241   0.03244   4.51787
   R18        4.54786   0.00853   0.00000   0.03526   0.03510   4.58295
   R19        4.53509   0.00733   0.00000   0.03487   0.03480   4.56990
    A1        1.83309   0.00148   0.00000   0.00474   0.00453   1.83762
    A2        1.35644   0.00166   0.00000   0.01502   0.01501   1.37144
    A3        1.89659   0.00092   0.00000   0.00424   0.00420   1.90079
    A4        1.26742   0.00088   0.00000   0.00684   0.00681   1.27423
    A5        1.23541   0.00387   0.00000   0.02299   0.02300   1.25841
    A6        1.94640  -0.00351   0.00000  -0.01851  -0.01833   1.92807
    A7        1.35318  -0.00193   0.00000  -0.00522  -0.00511   1.34808
    A8        1.28632  -0.00004   0.00000   0.00518   0.00519   1.29151
    A9        2.50136  -0.00365   0.00000  -0.02739  -0.02735   2.47401
   A10        1.86608   0.00071   0.00000   0.00901   0.00880   1.87488
   A11        1.78361  -0.00385   0.00000  -0.02277  -0.02274   1.76087
   A12        1.82060  -0.00177   0.00000  -0.01446  -0.01440   1.80620
   A13        1.82417   0.00112   0.00000   0.00222   0.00224   1.82640
   A14        1.89768  -0.00003   0.00000  -0.00182  -0.00183   1.89585
   A15        2.75574   0.00017   0.00000  -0.00647  -0.00645   2.74929
   A16        1.67196   0.00167   0.00000   0.00063   0.00048   1.67245
   A17        1.72647   0.00027   0.00000  -0.00577  -0.00573   1.72074
   A18        1.88203  -0.00120   0.00000  -0.01156  -0.01151   1.87052
   A19        1.71233   0.00298   0.00000   0.00620   0.00608   1.71841
   A20        1.92272   0.00076   0.00000  -0.00457  -0.00449   1.91822
   A21        1.88615  -0.00208   0.00000  -0.01209  -0.01207   1.87407
   A22        1.80792  -0.00321   0.00000  -0.01809  -0.01826   1.78966
   A23        2.01024  -0.00017   0.00000  -0.00219  -0.00236   2.00789
   A24        1.88607  -0.00370   0.00000  -0.02176  -0.02171   1.86436
   A25        1.94799  -0.00119   0.00000  -0.01312  -0.01322   1.93477
   A26        1.78572   0.00287   0.00000   0.01309   0.01294   1.79866
   A27        1.77815  -0.00052   0.00000  -0.00657  -0.00664   1.77151
   A28        1.94354   0.00198   0.00000   0.00954   0.00955   1.95308
   A29        1.85467  -0.00201   0.00000  -0.01054  -0.01058   1.84409
   A30        1.90963  -0.00176   0.00000  -0.01130  -0.01131   1.89832
   A31        1.29348   0.00425   0.00000   0.02548   0.02549   1.31897
   A32        1.29775   0.00239   0.00000   0.01638   0.01641   1.31416
    D1       -0.36051  -0.00146   0.00000  -0.02262  -0.02264  -0.38315
    D2        0.36033   0.00018   0.00000   0.01786   0.01769   0.37802
    D3       -0.15450   0.00088   0.00000   0.00356   0.00354  -0.15096
    D4        0.58178   0.00103   0.00000   0.00615   0.00600   0.58778
    D5       -0.45329  -0.00119   0.00000  -0.00242  -0.00247  -0.45576
    D6        0.24316  -0.00022   0.00000  -0.00192  -0.00194   0.24122
    D7        0.36829  -0.00177   0.00000  -0.01406  -0.01417   0.35412
    D8       -1.53891   0.00146   0.00000   0.00786   0.00776  -1.53115
    D9        1.51606  -0.00184   0.00000  -0.01158  -0.01173   1.50432
   D10       -0.39114   0.00140   0.00000   0.01033   0.01020  -0.38095
   D11       -0.32885   0.00141   0.00000   0.01483   0.01481  -0.31404
   D12        0.66923   0.00206   0.00000   0.01118   0.01117   0.68039
   D13        1.64977   0.00259   0.00000   0.00726   0.00733   1.65710
   D14        0.24505   0.00064   0.00000   0.01232   0.01223   0.25728
   D15        1.29513  -0.00136   0.00000  -0.00350  -0.00342   1.29171
   D16       -0.83700   0.00250   0.00000   0.02695   0.02683  -0.81017
   D17       -0.64019   0.00037   0.00000   0.00498   0.00488  -0.63531
   D18        0.40988  -0.00163   0.00000  -0.01084  -0.01076   0.39912
   D19       -1.72224   0.00222   0.00000   0.01960   0.01949  -1.70275
   D20       -0.38459   0.00229   0.00000   0.01704   0.01702  -0.36757
   D21        1.49661  -0.00243   0.00000  -0.01069  -0.01074   1.48587
   D22       -1.56472   0.00442   0.00000   0.02521   0.02522  -1.53950
   D23        0.31648  -0.00029   0.00000  -0.00252  -0.00254   0.31394
   D24        0.33651  -0.00183   0.00000  -0.01637  -0.01628   0.32023
   D25       -0.64061  -0.00129   0.00000  -0.00774  -0.00775  -0.64836
   D26       -1.60812  -0.00144   0.00000  -0.00283  -0.00278  -1.61090
   D27       -0.20448   0.00009   0.00000  -0.01057  -0.01051  -0.21499
   D28       -1.21392   0.00082   0.00000  -0.00370  -0.00349  -1.21741
   D29        0.82025  -0.00065   0.00000  -0.01623  -0.01612   0.80413
   D30        0.68859  -0.00041   0.00000  -0.00539  -0.00549   0.68310
   D31       -0.32085   0.00033   0.00000   0.00148   0.00153  -0.31932
   D32        1.71333  -0.00114   0.00000  -0.01105  -0.01110   1.70222
   D33       -0.47425  -0.00112   0.00000  -0.00976  -0.00976  -0.48401
   D34        0.72415  -0.00033   0.00000   0.00033   0.00042   0.72456
   D35        0.41229  -0.00169   0.00000  -0.01139  -0.01121   0.40108
   D36        1.61068  -0.00089   0.00000  -0.00130  -0.00103   1.60965
   D37       -1.52935  -0.00049   0.00000  -0.00822  -0.00832  -1.53767
   D38       -0.33095   0.00031   0.00000   0.00187   0.00185  -0.32910
   D39       -1.16792   0.00132   0.00000   0.00299   0.00312  -1.16480
   D40       -0.08221   0.00182   0.00000   0.00550   0.00551  -0.07670
   D41        1.05154   0.00071   0.00000   0.00192   0.00185   1.05339
   D42        0.05097  -0.00081   0.00000  -0.00257  -0.00260   0.04837
   D43       -0.02150  -0.00028   0.00000   0.00010   0.00015  -0.02134
   D44       -0.40710   0.00122   0.00000   0.00906   0.00903  -0.39807
   D45        0.72638  -0.00002   0.00000   0.00310   0.00324   0.72962
   D46        1.76598  -0.00174   0.00000  -0.01273  -0.01235   1.75364
   D47        0.30901   0.00030   0.00000   0.00074   0.00067   0.30968
   D48       -0.73368  -0.00155   0.00000  -0.00950  -0.00948  -0.74316
   D49       -1.74963  -0.00094   0.00000  -0.00201  -0.00212  -1.75175
         Item               Value     Threshold  Converged?
 Maximum Force            0.018233     0.000450     NO 
 RMS     Force            0.004967     0.000300     NO 
 Maximum Displacement     0.077423     0.001800     NO 
 RMS     Displacement     0.017926     0.001200     NO 
 Predicted change in Energy=-1.235036D-02
 GradGradGradGradGradGradGradGradGradGradGradGradGradGradGradGradGradGrad

                          Input orientation:                          
 ---------------------------------------------------------------------
 Center     Atomic     Atomic              Coordinates (Angstroms)
 Number     Number      Type              X           Y           Z
 ---------------------------------------------------------------------
    1         14             0       -2.392479   -0.746810   -0.450393
    2         14             0       -0.560937   -2.314775    0.060426
    3         14             0       -1.471967    1.568927    0.108436
    4         14             0       -0.809651   -0.281652    1.531895
    5         14             0       -0.391537   -0.102961   -1.583911
    6         14             0        1.654153   -1.041470    0.021518
    7         14             0        1.081746    1.543794    0.087868
    8         14             0        1.568046    0.212346    2.055692
    9         14             0        1.957067    0.405074   -1.857699
 ---------------------------------------------------------------------
                    Distance matrix (angstroms):
                    1          2          3          4          5
     1  Si   0.000000
     2  Si   2.464548   0.000000
     3  Si   2.553874   3.989414   0.000000
     4  Si   2.578989   2.522037   2.426838   0.000000
     5  Si   2.388133   2.761279   2.612772   3.148809   0.000000
     6  Si   4.084698   2.555277   4.073616   2.988125   2.764605
     7  Si   4.196050   4.193770   2.553919   2.999141   2.770778
     8  Si   4.783953   3.860051   3.856657   2.484319   4.145611
     9  Si   4.714435   4.173382   4.120499   4.428958   2.418470
                    6          7          8          9
     6  Si   0.000000
     7  Si   2.648706   0.000000
     8  Si   2.391095   2.425195   0.000000
     9  Si   2.390753   2.418285   3.937399   0.000000
 Stoichiometry    Si9
 Framework group  C1[X(Si9)]
 Deg. of freedom    21
 Full point group                 C1
 Largest Abelian subgroup         C1      NOp   1
 Largest concise Abelian subgroup C1      NOp   1
                         Standard orientation:                         
 ---------------------------------------------------------------------
 Center     Atomic     Atomic              Coordinates (Angstroms)
 Number     Number      Type              X           Y           Z
 ---------------------------------------------------------------------
    1         14             0        2.547497   -0.464554   -0.004182
    2         14             0        1.213714    0.204948   -1.965505
    3         14             0        1.036371   -0.047503    2.011962
    4         14             0        0.910350    1.521020    0.164424
    5         14             0        0.439810   -1.587388   -0.012747
    6         14             0       -1.264077    0.134508   -1.344996
    7         14             0       -1.414672    0.001657    1.296086
    8         14             0       -1.508809    2.071388    0.035560
    9         14             0       -1.960184   -1.834075   -0.180601
 ---------------------------------------------------------------------
 Rotational constants (GHZ):      0.7456170      0.5782700      0.5550845
 Standard basis: LANL2DZ (5D, 7F)
 There are    72 symmetry adapted basis functions of A   symmetry.
 Integral buffers will be    131072 words long.
 Raffenetti 2 integral format.
 Two-electron integral symmetry is turned on.
    72 basis functions,   108 primitive gaussians,    72 cartesian basis functions
    18 alpha electrons       18 beta electrons
       nuclear repulsion energy       100.4578603309 Hartrees.
 NAtoms=    9 NActive=    9 NUniq=    9 SFac= 7.50D-01 NAtFMM=   80 NAOKFM=F Big=F
 One-electron integrals computed using PRISM.
   1 Symmetry operations used in ECPInt.
 ECPInt:  NShTT=     666 NPrTT=    1503 LenC2=     667 LenP2D=    1468.
 LDataN:  DoStor=F MaxTD1= 3 Len=   28
 LDataN:  DoStor=T MaxTD1= 3 Len=   28
 NBasis=    72 RedAO= T  NBF=    72
 NBsUse=    72 1.00D-06 NBFU=    72
 Initial guess read from the read-write file:
 Initial guess orbital symmetries:
       Occupied  (A) (A) (A) (A) (A) (A) (A) (A) (A) (A) (A) (A)
                 (A) (A) (A) (A) (A) (A)
       Virtual   (A) (A) (A) (A) (A) (A) (A) (A) (A) (A) (A) (A)
                 (A) (A) (A) (A) (A) (A) (A) (A) (A) (A) (A) (A)
                 (A) (A) (A) (A) (A) (A) (A) (A) (A) (A) (A) (A)
                 (A) (A) (A) (A) (A) (A) (A) (A) (A) (A) (A) (A)
                 (A) (A) (A) (A) (A) (A)
 Harris functional with IExCor=  402 diagonalized for initial guess.
 ExpMin= 8.85D-02 ExpMax= 2.58D+00 ExpMxC= 2.58D+00 IAcc=2 IRadAn=         4 AccDes= 0.00D+00
 HarFok:  IExCor= 402 AccDes= 0.00D+00 IRadAn=         4 IDoV=1
 ScaDFX=  1.000000  1.000000  1.000000  1.000000
 Requested convergence on RMS density matrix=1.00D-08 within 128 cycles.
 Requested convergence on MAX density matrix=1.00D-06.
 Requested convergence on             energy=1.00D-06.
 No special actions if energy rises.
 Keep R1 integrals in memory in canonical form, NReq=     5254974.
 Integral accuracy reduced to 1.0D-05 until final iterations.
 Initial convergence to 1.0D-05 achieved.  Increase integral accuracy.
 SCF Done:  E(RB+HF-LYP) =  -34.7085894934     A.U. after   18 cycles
             Convg  =    0.2885D-08             -V/T =  3.5779
             S**2   =   0.0000
 QCSCF skips out because SCF is already converged.
 Range of M.O.s used for correlation:     1    72
 NBasis=    72 NAE=    18 NBE=    18 NFC=     0 NFV=     0
 NROrb=     72 NOA=    18 NOB=    18 NVA=    54 NVB=    54
   1 Symmetry operations used in ECPInt.
 ECPInt:  NShTT=     666 NPrTT=    1503 LenC2=     667 LenP2D=    1468.
 LDataN:  DoStor=F MaxTD1= 4 Len=   56
 LDataN:  DoStor=T MaxTD1= 4 Len=   56
 Symmetrizing basis deriv contribution to polar:
 IMax=3 JMax=2 DiffMx= 0.00D+00
 G2DrvN: will do   10 centers at a time, making    1 passes doing MaxLOS=1.
 FoFDir/FoFCou used for L=0 through L=1.
 DoAtom=TTTTTTTTT
          Differentiating once with respect to electric field.
                with respect to dipole field.
          Differentiating once with respect to nuclear coordinates.
          Store integrals in memory, NReq=     4257025.
          There are  30 degrees of freedom in the 1st order CPHF.
    27 vectors were produced by pass  0.
 AX will form  27 AO Fock derivatives at one time.
    27 vectors were produced by pass  1.
    27 vectors were produced by pass  2.
    27 vectors were produced by pass  3.
    27 vectors were produced by pass  4.
    27 vectors were produced by pass  5.
    21 vectors were produced by pass  6.
     3 vectors were produced by pass  7.
     3 vectors were produced by pass  8.
 Inv2:  IOpt= 1 Iter= 1 AM= 2.37D-15 Conv= 1.00D-12.
 Inverted reduced A of dimension  189 with in-core refinement.
 Isotropic polarizability for W=    0.000000      264.83 Bohr**3.
 End of Minotr Frequency-dependent properties file   721 does not exist.
   1 Symmetry operations used in ECPInt.
 ECPInt:  NShTT=     666 NPrTT=    1503 LenC2=     667 LenP2D=    1503.
 LDataN:  DoStor=F MaxTD1= 5 Len=  102
 LDataN:  DoStor=T MaxTD1= 5 Len=  102
 ***** Axes restored to original set *****
 -------------------------------------------------------------------
 Center     Atomic                   Forces (Hartrees/Bohr)
 Number     Number              X              Y              Z
 -------------------------------------------------------------------
    1         14          -0.016469204   -0.003314248   -0.007167461
    2         14           0.006657107   -0.017738096    0.003625333
    3         14          -0.012818367    0.028751334    0.004368822
    4         14          -0.004991280   -0.005578028    0.017777226
    5         14          -0.004373356   -0.002794513   -0.020483625
    6         14           0.017504858   -0.021591432    0.000690704
    7         14           0.004741557    0.020156897    0.001106646
    8         14           0.003508379    0.000991427    0.006855721
    9         14           0.006240307    0.001116660   -0.006773364
 -------------------------------------------------------------------
 Cartesian Forces:  Max     0.028751334 RMS     0.011993445

 GradGradGradGradGradGradGradGradGradGradGradGradGradGradGradGradGradGrad
 Berny optimization.
 Internal  Forces:  Max     0.012641649 RMS     0.003559243
 Search for a local minimum.
 Step number   2 out of a maximum of 100
 All quantities printed in internal units (Hartrees-Bohrs-Radians)
 Second derivative matrix not updated -- analytic derivatives used.
 Trust test= 1.01D+00 RLast= 3.00D-01 DXMaxT set to 4.24D-01
 Maximum step size (   0.424) exceeded in linear search.
    -- Step size scaled by   0.707
 Quartic linear search produced a step of  1.41424.
 Iteration  1 RMS(Cart)=  0.02532255 RMS(Int)=  0.00047275
 Iteration  2 RMS(Cart)=  0.00024827 RMS(Int)=  0.00035934
 Iteration  3 RMS(Cart)=  0.00000008 RMS(Int)=  0.00035934
 Variable       Old X    -DE/DX   Delta X   Delta X   Delta X     New X
                                 (Linear)    (Quad)   (Total)
    R1        4.65732   0.00977   0.10737   0.00000   0.10741   4.76473
    R2        4.82612   0.00914   0.11169   0.00000   0.11197   4.93809
    R3        4.87358   0.00513   0.06924   0.00000   0.06942   4.94301
    R4        4.51292   0.00493   0.03904   0.00000   0.03827   4.55119
    R5        4.76596   0.00734   0.07900   0.00000   0.07885   4.84481
    R6        5.21806   0.00706   0.10112   0.00000   0.10100   5.31906
    R7        4.82877   0.00425   0.05018   0.00000   0.05036   4.87913
    R8        4.58606   0.01243   0.11783   0.00000   0.11772   4.70377
    R9        4.93742   0.01264   0.15636   0.00000   0.15689   5.09431
   R10        4.82621   0.00846   0.08818   0.00000   0.08840   4.91460
   R11        4.69468   0.00478   0.05724   0.00000   0.05740   4.75208
   R12        5.22435   0.00884   0.12762   0.00000   0.12807   5.35241
   R13        5.23601   0.00492   0.08451   0.00000   0.08369   5.31970
   R14        4.57025   0.00430   0.04516   0.00000   0.04488   4.61512
   R15        5.00533   0.01215   0.15040   0.00000   0.15065   5.15598
   R16        4.51851   0.00573   0.05802   0.00000   0.05857   4.57708
   R17        4.51787   0.00384   0.04587   0.00000   0.04595   4.56382
   R18        4.58295   0.00564   0.04964   0.00000   0.04914   4.63209
   R19        4.56990   0.00500   0.04922   0.00000   0.04901   4.61891
    A1        1.83762   0.00092   0.00641   0.00000   0.00571   1.84333
    A2        1.37144   0.00131   0.02122   0.00000   0.02117   1.39262
    A3        1.90079   0.00061   0.00594   0.00000   0.00582   1.90661
    A4        1.27423   0.00065   0.00963   0.00000   0.00951   1.28374
    A5        1.25841   0.00274   0.03253   0.00000   0.03254   1.29094
    A6        1.92807  -0.00243  -0.02593   0.00000  -0.02533   1.90274
    A7        1.34808  -0.00122  -0.00722   0.00000  -0.00685   1.34123
    A8        1.29151   0.00009   0.00733   0.00000   0.00735   1.29886
    A9        2.47401  -0.00274  -0.03867   0.00000  -0.03851   2.43551
   A10        1.87488   0.00064   0.01245   0.00000   0.01174   1.88662
   A11        1.76087  -0.00273  -0.03216   0.00000  -0.03206   1.72881
   A12        1.80620  -0.00135  -0.02037   0.00000  -0.02015   1.78605
   A13        1.82640   0.00068   0.00317   0.00000   0.00320   1.82961
   A14        1.89585  -0.00007  -0.00259   0.00000  -0.00264   1.89322
   A15        2.74929  -0.00009  -0.00912   0.00000  -0.00908   2.74021
   A16        1.67245   0.00092   0.00068   0.00000   0.00019   1.67264
   A17        1.72074  -0.00002  -0.00811   0.00000  -0.00800   1.71274
   A18        1.87052  -0.00099  -0.01628   0.00000  -0.01613   1.85439
   A19        1.71841   0.00177   0.00859   0.00000   0.00819   1.72660
   A20        1.91822   0.00029  -0.00635   0.00000  -0.00611   1.91211
   A21        1.87407  -0.00146  -0.01707   0.00000  -0.01701   1.85707
   A22        1.78966  -0.00227  -0.02582   0.00000  -0.02637   1.76329
   A23        2.00789  -0.00019  -0.00333   0.00000  -0.00389   2.00400
   A24        1.86436  -0.00261  -0.03070   0.00000  -0.03050   1.83386
   A25        1.93477  -0.00105  -0.01870   0.00000  -0.01903   1.91574
   A26        1.79866   0.00193   0.01830   0.00000   0.01780   1.81646
   A27        1.77151  -0.00045  -0.00939   0.00000  -0.00964   1.76188
   A28        1.95308   0.00136   0.01350   0.00000   0.01350   1.96658
   A29        1.84409  -0.00140  -0.01496   0.00000  -0.01509   1.82900
   A30        1.89832  -0.00130  -0.01600   0.00000  -0.01603   1.88229
   A31        1.31897   0.00303   0.03605   0.00000   0.03608   1.35505
   A32        1.31416   0.00176   0.02321   0.00000   0.02333   1.33749
    D1       -0.38315  -0.00145  -0.03201   0.00000  -0.03205  -0.41520
    D2        0.37802   0.00058   0.02501   0.00000   0.02442   0.40244
    D3       -0.15096   0.00059   0.00501   0.00000   0.00494  -0.14602
    D4        0.58778   0.00069   0.00849   0.00000   0.00797   0.59574
    D5       -0.45576  -0.00075  -0.00349   0.00000  -0.00366  -0.45942
    D6        0.24122  -0.00021  -0.00274   0.00000  -0.00283   0.23839
    D7        0.35412  -0.00138  -0.02003   0.00000  -0.02041   0.33371
    D8       -1.53115   0.00097   0.01098   0.00000   0.01067  -1.52047
    D9        1.50432  -0.00134  -0.01659   0.00000  -0.01711   1.48721
   D10       -0.38095   0.00101   0.01442   0.00000   0.01397  -0.36697
   D11       -0.31404   0.00120   0.02095   0.00000   0.02088  -0.29316
   D12        0.68039   0.00142   0.01579   0.00000   0.01576   0.69615
   D13        1.65710   0.00162   0.01037   0.00000   0.01061   1.66771
   D14        0.25728   0.00069   0.01729   0.00000   0.01698   0.27425
   D15        1.29171  -0.00081  -0.00484   0.00000  -0.00456   1.28715
   D16       -0.81017   0.00211   0.03795   0.00000   0.03755  -0.77262
   D17       -0.63531   0.00034   0.00691   0.00000   0.00659  -0.62872
   D18        0.39912  -0.00116  -0.01522   0.00000  -0.01495   0.38417
   D19       -1.70275   0.00176   0.02756   0.00000   0.02716  -1.67559
   D20       -0.36757   0.00172   0.02407   0.00000   0.02401  -0.34356
   D21        1.48587  -0.00161  -0.01519   0.00000  -0.01534   1.47053
   D22       -1.53950   0.00311   0.03567   0.00000   0.03570  -1.50380
   D23        0.31394  -0.00022  -0.00359   0.00000  -0.00366   0.31029
   D24        0.32023  -0.00146  -0.02302   0.00000  -0.02270   0.29753
   D25       -0.64836  -0.00092  -0.01096   0.00000  -0.01099  -0.65935
   D26       -1.61090  -0.00084  -0.00393   0.00000  -0.00375  -1.61465
   D27       -0.21499  -0.00025  -0.01486   0.00000  -0.01466  -0.22965
   D28       -1.21741   0.00038  -0.00493   0.00000  -0.00420  -1.22161
   D29        0.80413  -0.00080  -0.02280   0.00000  -0.02245   0.78169
   D30        0.68310  -0.00042  -0.00776   0.00000  -0.00810   0.67500
   D31       -0.31932   0.00022   0.00217   0.00000   0.00235  -0.31697
   D32        1.70222  -0.00097  -0.01570   0.00000  -0.01589   1.68633
   D33       -0.48401  -0.00091  -0.01380   0.00000  -0.01383  -0.49784
   D34        0.72456  -0.00015   0.00059   0.00000   0.00090   0.72546
   D35        0.40108  -0.00119  -0.01585   0.00000  -0.01526   0.38581
   D36        1.60965  -0.00043  -0.00146   0.00000  -0.00054   1.60911
   D37       -1.53767  -0.00057  -0.01177   0.00000  -0.01214  -1.54981
   D38       -0.32910   0.00020   0.00262   0.00000   0.00259  -0.32651
   D39       -1.16480   0.00081   0.00442   0.00000   0.00485  -1.15995
   D40       -0.07670   0.00115   0.00779   0.00000   0.00781  -0.06890
   D41        1.05339   0.00046   0.00262   0.00000   0.00238   1.05576
   D42        0.04837  -0.00051  -0.00368   0.00000  -0.00378   0.04459
   D43       -0.02134  -0.00014   0.00022   0.00000   0.00038  -0.02097
   D44       -0.39807   0.00089   0.01277   0.00000   0.01264  -0.38543
   D45        0.72962   0.00011   0.00458   0.00000   0.00503   0.73465
   D46        1.75364  -0.00124  -0.01746   0.00000  -0.01616   1.73747
   D47        0.30968   0.00019   0.00095   0.00000   0.00074   0.31042
   D48       -0.74316  -0.00112  -0.01341   0.00000  -0.01335  -0.75651
   D49       -1.75175  -0.00059  -0.00300   0.00000  -0.00338  -1.75514
         Item               Value     Threshold  Converged?
 Maximum Force            0.012642     0.000450     NO 
 RMS     Force            0.003559     0.000300     NO 
 Maximum Displacement     0.109245     0.001800     NO 
 RMS     Displacement     0.025370     0.001200     NO 
 Predicted change in Energy=-1.109670D-02
 GradGradGradGradGradGradGradGradGradGradGradGradGradGradGradGradGradGrad

                          Input orientation:                          
 ---------------------------------------------------------------------
 Center     Atomic     Atomic              Coordinates (Angstroms)
 Number     Number      Type              X           Y           Z
 ---------------------------------------------------------------------
    1         14             0       -2.415090   -0.749338   -0.468324
    2         14             0       -0.543717   -2.348611    0.077282
    3         14             0       -1.506414    1.626737    0.129176
    4         14             0       -0.847329   -0.289668    1.574432
    5         14             0       -0.397887   -0.104195   -1.615057
    6         14             0        1.704826   -1.081300    0.011660
    7         14             0        1.093348    1.576833    0.080508
    8         14             0        1.569784    0.208253    2.057467
    9         14             0        1.976921    0.403761   -1.873313
 ---------------------------------------------------------------------
                    Distance matrix (angstroms):
                    1          2          3          4          5
     1  Si   0.000000
     2  Si   2.521388   0.000000
     3  Si   2.613127   4.090583   0.000000
     4  Si   2.615726   2.563763   2.489130   0.000000
     5  Si   2.408384   2.814725   2.695794   3.226335   0.000000
     6  Si   4.161045   2.581924   4.202302   3.095551   2.832375
     7  Si   4.245165   4.253128   2.600696   3.079264   2.815063
     8  Si   4.814127   3.863362   3.897871   2.514693   4.178132
     9  Si   4.753251   4.211174   4.199911   4.510452   2.442219
                    6          7          8          9
     6  Si   0.000000
     7  Si   2.728427   0.000000
     8  Si   2.422087   2.451198   0.000000
     9  Si   2.415070   2.444220   3.956642   0.000000
 Stoichiometry    Si9
 Framework group  C1[X(Si9)]
 Deg. of freedom    21
 Full point group                 C1
 Largest Abelian subgroup         C1      NOp   1
 Largest concise Abelian subgroup C1      NOp   1
                         Standard orientation:                         
 ---------------------------------------------------------------------
 Center     Atomic     Atomic              Coordinates (Angstroms)
 Number     Number      Type              X           Y           Z
 ---------------------------------------------------------------------
    1         14             0        2.559946   -0.529522   -0.058918
    2         14             0        1.167803    0.213885   -2.025307
    3         14             0        1.096861   -0.062716    2.055297
    4         14             0        0.980902    1.544491    0.158140
    5         14             0        0.415939   -1.626267   -0.032515
    6         14             0       -1.328747    0.160394   -1.369025
    7         14             0       -1.406467    0.010939    1.354197
    8         14             0       -1.470136    2.100410    0.074185
    9         14             0       -2.016101   -1.811613   -0.156055
 ---------------------------------------------------------------------
 Rotational constants (GHZ):      0.7175891      0.5589387      0.5423879
 Standard basis: LANL2DZ (5D, 7F)
 There are    72 symmetry adapted basis functions of A   symmetry.
 Integral buffers will be    131072 words long.
 Raffenetti 2 integral format.
 Two-electron integral symmetry is turned on.
    72 basis functions,   108 primitive gaussians,    72 cartesian basis functions
    18 alpha electrons       18 beta electrons
       nuclear repulsion energy        98.7795070276 Hartrees.
 NAtoms=    9 NActive=    9 NUniq=    9 SFac= 7.50D-01 NAtFMM=   80 NAOKFM=F Big=F
 One-electron integrals computed using PRISM.
   1 Symmetry operations used in ECPInt.
 ECPInt:  NShTT=     666 NPrTT=    1503 LenC2=     667 LenP2D=    1466.
 LDataN:  DoStor=F MaxTD1= 3 Len=   28
 LDataN:  DoStor=T MaxTD1= 3 Len=   28
 NBasis=    72 RedAO= T  NBF=    72
 NBsUse=    72 1.00D-06 NBFU=    72
 Initial guess read from the read-write file:
 Initial guess orbital symmetries:
       Occupied  (A) (A) (A) (A) (A) (A) (A) (A) (A) (A) (A) (A)
                 (A) (A) (A) (A) (A) (A)
       Virtual   (A) (A) (A) (A) (A) (A) (A) (A) (A) (A) (A) (A)
                 (A) (A) (A) (A) (A) (A) (A) (A) (A) (A) (A) (A)
                 (A) (A) (A) (A) (A) (A) (A) (A) (A) (A) (A) (A)
                 (A) (A) (A) (A) (A) (A) (A) (A) (A) (A) (A) (A)
                 (A) (A) (A) (A) (A) (A)
 Harris functional with IExCor=  402 diagonalized for initial guess.
 ExpMin= 8.85D-02 ExpMax= 2.58D+00 ExpMxC= 2.58D+00 IAcc=2 IRadAn=         4 AccDes= 0.00D+00
 HarFok:  IExCor= 402 AccDes= 0.00D+00 IRadAn=         4 IDoV=1
 ScaDFX=  1.000000  1.000000  1.000000  1.000000
 Requested convergence on RMS density matrix=1.00D-08 within 128 cycles.
 Requested convergence on MAX density matrix=1.00D-06.
 Requested convergence on             energy=1.00D-06.
 No special actions if energy rises.
 Keep R1 integrals in memory in canonical form, NReq=     5254974.
 Integral accuracy reduced to 1.0D-05 until final iterations.
 Initial convergence to 1.0D-05 achieved.  Increase integral accuracy.
 SCF Done:  E(RB+HF-LYP) =  -34.7198739331     A.U. after   18 cycles
             Convg  =    0.7109D-08             -V/T =  3.6169
             S**2   =   0.0000
 QCSCF skips out because SCF is already converged.
 Range of M.O.s used for correlation:     1    72
 NBasis=    72 NAE=    18 NBE=    18 NFC=     0 NFV=     0
 NROrb=     72 NOA=    18 NOB=    18 NVA=    54 NVB=    54
   1 Symmetry operations used in ECPInt.
 ECPInt:  NShTT=     666 NPrTT=    1503 LenC2=     667 LenP2D=    1466.
 LDataN:  DoStor=F MaxTD1= 4 Len=   56
 LDataN:  DoStor=T MaxTD1= 4 Len=   56
 Symmetrizing basis deriv contribution to polar:
 IMax=3 JMax=2 DiffMx= 0.00D+00
 G2DrvN: will do   10 centers at a time, making    1 passes doing MaxLOS=1.
 FoFDir/FoFCou used for L=0 through L=1.
 DoAtom=TTTTTTTTT
          Differentiating once with respect to electric field.
                with respect to dipole field.
          Differentiating once with respect to nuclear coordinates.
          Store integrals in memory, NReq=     4257025.
          There are  30 degrees of freedom in the 1st order CPHF.
    27 vectors were produced by pass  0.
 AX will form  27 AO Fock derivatives at one time.
    27 vectors were produced by pass  1.
    27 vectors were produced by pass  2.
    27 vectors were produced by pass  3.
    27 vectors were produced by pass  4.
    27 vectors were produced by pass  5.
    21 vectors were produced by pass  6.
     3 vectors were produced by pass  7.
     3 vectors were produced by pass  8.
 Inv2:  IOpt= 1 Iter= 1 AM= 1.68D-15 Conv= 1.00D-12.
 Inverted reduced A of dimension  189 with in-core refinement.
 Isotropic polarizability for W=    0.000000      271.59 Bohr**3.
 End of Minotr Frequency-dependent properties file   721 does not exist.
   1 Symmetry operations used in ECPInt.
 ECPInt:  NShTT=     666 NPrTT=    1503 LenC2=     667 LenP2D=    1503.
 LDataN:  DoStor=F MaxTD1= 5 Len=  102
 LDataN:  DoStor=T MaxTD1= 5 Len=  102
 ***** Axes restored to original set *****
 -------------------------------------------------------------------
 Center     Atomic                   Forces (Hartrees/Bohr)
 Number     Number              X              Y              Z
 -------------------------------------------------------------------
    1         14          -0.007724499   -0.001875652   -0.005787150
    2         14           0.003705603   -0.009185275    0.003795161
    3         14          -0.005624946    0.014899205    0.004945358
    4         14          -0.002241083   -0.002543323    0.007992921
    5         14          -0.004203425   -0.001964785   -0.013481252
    6         14           0.009345499   -0.012167123    0.001373722
    7         14           0.002619464    0.011169511    0.001205661
    8         14           0.001700917    0.000945221    0.002321352
    9         14           0.002422472    0.000722221   -0.002365773
 -------------------------------------------------------------------
 Cartesian Forces:  Max     0.014899205 RMS     0.006547305

 GradGradGradGradGradGradGradGradGradGradGradGradGradGradGradGradGradGrad
 Berny optimization.
 Internal  Forces:  Max     0.007272461 RMS     0.001871057
 Search for a local minimum.
 Step number   3 out of a maximum of 100
 All quantities printed in internal units (Hartrees-Bohrs-Radians)
 Second derivative matrix not updated -- analytic derivatives used.
 Maximum step size (   0.424) exceeded in linear search.
    -- Step size scaled by   0.723
 Quintic linear search produced a step of  1.00008.
 Iteration  1 RMS(Cart)=  0.02534466 RMS(Int)=  0.00050853
 Iteration  2 RMS(Cart)=  0.00024733 RMS(Int)=  0.00041009
 Iteration  3 RMS(Cart)=  0.00000009 RMS(Int)=  0.00041009
 Variable       Old X    -DE/DX   Delta X   Delta X   Delta X     New X
                                 (Linear)    (Quad)   (Total)
    R1        4.76473   0.00507   0.10742   0.00000   0.10746   4.87219
    R2        4.93809   0.00526   0.11198   0.00000   0.11228   5.05038
    R3        4.94301   0.00315   0.06943   0.00000   0.06965   5.01266
    R4        4.55119   0.00138   0.03827   0.00000   0.03742   4.58861
    R5        4.84481   0.00334   0.07886   0.00000   0.07867   4.92348
    R6        5.31906   0.00445   0.10101   0.00000   0.10088   5.41994
    R7        4.87913   0.00182   0.05036   0.00000   0.05057   4.92970
    R8        4.70377   0.00538   0.11772   0.00000   0.11759   4.82137
    R9        5.09431   0.00727   0.15690   0.00000   0.15746   5.25178
   R10        4.91460   0.00373   0.08840   0.00000   0.08865   5.00325
   R11        4.75208   0.00233   0.05740   0.00000   0.05757   4.80966
   R12        5.35241   0.00556   0.12808   0.00000   0.12856   5.48097
   R13        5.31970   0.00372   0.08369   0.00000   0.08277   5.40247
   R14        4.61512   0.00175   0.04488   0.00000   0.04456   4.65968
   R15        5.15598   0.00663   0.15066   0.00000   0.15090   5.30688
   R16        4.57708   0.00238   0.05857   0.00000   0.05923   4.63631
   R17        4.56382   0.00191   0.04596   0.00000   0.04605   4.60987
   R18        4.63209   0.00207   0.04914   0.00000   0.04861   4.68070
   R19        4.61891   0.00211   0.04902   0.00000   0.04878   4.66769
    A1        1.84333   0.00028   0.00571   0.00000   0.00493   1.84827
    A2        1.39262   0.00080   0.02117   0.00000   0.02111   1.41372
    A3        1.90661   0.00017   0.00582   0.00000   0.00566   1.91227
    A4        1.28374   0.00029   0.00951   0.00000   0.00937   1.29311
    A5        1.29094   0.00126   0.03254   0.00000   0.03254   1.32348
    A6        1.90274  -0.00124  -0.02533   0.00000  -0.02466   1.87809
    A7        1.34123  -0.00053  -0.00685   0.00000  -0.00644   1.33480
    A8        1.29886   0.00010   0.00735   0.00000   0.00736   1.30622
    A9        2.43551  -0.00149  -0.03851   0.00000  -0.03830   2.39721
   A10        1.88662   0.00072   0.01174   0.00000   0.01094   1.89756
   A11        1.72881  -0.00129  -0.03206   0.00000  -0.03194   1.69687
   A12        1.78605  -0.00075  -0.02016   0.00000  -0.01990   1.76615
   A13        1.82961   0.00014   0.00320   0.00000   0.00323   1.83284
   A14        1.89322  -0.00015  -0.00264   0.00000  -0.00270   1.89052
   A15        2.74021  -0.00041  -0.00908   0.00000  -0.00905   2.73116
   A16        1.67264   0.00011   0.00019   0.00000  -0.00035   1.67229
   A17        1.71274  -0.00038  -0.00800   0.00000  -0.00790   1.70484
   A18        1.85439  -0.00079  -0.01613   0.00000  -0.01597   1.83842
   A19        1.72660   0.00033   0.00820   0.00000   0.00774   1.73434
   A20        1.91211  -0.00035  -0.00611   0.00000  -0.00586   1.90625
   A21        1.85707  -0.00066  -0.01701   0.00000  -0.01692   1.84015
   A22        1.76329  -0.00098  -0.02638   0.00000  -0.02698   1.73631
   A23        2.00400  -0.00018  -0.00389   0.00000  -0.00452   1.99948
   A24        1.83386  -0.00122  -0.03050   0.00000  -0.03026   1.80360
   A25        1.91574  -0.00088  -0.01903   0.00000  -0.01939   1.89635
   A26        1.81646   0.00085   0.01780   0.00000   0.01722   1.83368
   A27        1.76188  -0.00024  -0.00964   0.00000  -0.00991   1.75197
   A28        1.96658   0.00061   0.01350   0.00000   0.01347   1.98006
   A29        1.82900  -0.00062  -0.01509   0.00000  -0.01526   1.81374
   A30        1.88229  -0.00081  -0.01603   0.00000  -0.01608   1.86621
   A31        1.35505   0.00138   0.03609   0.00000   0.03610   1.39115
   A32        1.33749   0.00085   0.02333   0.00000   0.02345   1.36094
    D1       -0.41520  -0.00141  -0.03205   0.00000  -0.03206  -0.44725
    D2        0.40244   0.00106   0.02442   0.00000   0.02374   0.42618
    D3       -0.14602   0.00027   0.00494   0.00000   0.00484  -0.14119
    D4        0.59574   0.00027   0.00797   0.00000   0.00737   0.60311
    D5       -0.45942  -0.00023  -0.00366   0.00000  -0.00386  -0.46328
    D6        0.23839  -0.00027  -0.00283   0.00000  -0.00294   0.23545
    D7        0.33371  -0.00083  -0.02041   0.00000  -0.02084   0.31287
    D8       -1.52047   0.00029   0.01067   0.00000   0.01033  -1.51014
    D9        1.48721  -0.00061  -0.01711   0.00000  -0.01769   1.46952
   D10       -0.36697   0.00052   0.01397   0.00000   0.01348  -0.35349
   D11       -0.29316   0.00088   0.02088   0.00000   0.02081  -0.27235
   D12        0.69615   0.00059   0.01576   0.00000   0.01572   0.71187
   D13        1.66771   0.00036   0.01061   0.00000   0.01087   1.67858
   D14        0.27425   0.00073   0.01698   0.00000   0.01663   0.29088
   D15        1.28715  -0.00016  -0.00456   0.00000  -0.00424   1.28290
   D16       -0.77262   0.00159   0.03755   0.00000   0.03705  -0.73556
   D17       -0.62872   0.00034   0.00659   0.00000   0.00626  -0.62246
   D18        0.38417  -0.00055  -0.01495   0.00000  -0.01461   0.36956
   D19       -1.67559   0.00120   0.02717   0.00000   0.02669  -1.64890
   D20       -0.34356   0.00099   0.02401   0.00000   0.02396  -0.31960
   D21        1.47053  -0.00049  -0.01535   0.00000  -0.01552   1.45501
   D22       -1.50380   0.00145   0.03570   0.00000   0.03572  -1.46808
   D23        0.31029  -0.00004  -0.00366   0.00000  -0.00376   0.30653
   D24        0.29753  -0.00097  -0.02271   0.00000  -0.02236   0.27516
   D25       -0.65935  -0.00039  -0.01099   0.00000  -0.01102  -0.67037
   D26       -1.61465  -0.00007  -0.00375   0.00000  -0.00356  -1.61820
   D27       -0.22965  -0.00065  -0.01466   0.00000  -0.01444  -0.24408
   D28       -1.22161  -0.00017  -0.00420   0.00000  -0.00335  -1.22496
   D29        0.78169  -0.00098  -0.02245   0.00000  -0.02207   0.75962
   D30        0.67500  -0.00049  -0.00810   0.00000  -0.00850   0.66650
   D31       -0.31697  -0.00001   0.00235   0.00000   0.00258  -0.31438
   D32        1.68633  -0.00082  -0.01589   0.00000  -0.01613   1.67020
   D33       -0.49784  -0.00068  -0.01383   0.00000  -0.01388  -0.51172
   D34        0.72546   0.00008   0.00090   0.00000   0.00130   0.72676
   D35        0.38581  -0.00058  -0.01527   0.00000  -0.01463   0.37119
   D36        1.60911   0.00018  -0.00054   0.00000   0.00055   1.60967
   D37       -1.54981  -0.00076  -0.01214   0.00000  -0.01261  -1.56242
   D38       -0.32651   0.00000   0.00259   0.00000   0.00257  -0.32394
   D39       -1.15995   0.00014   0.00485   0.00000   0.00534  -1.15461
   D40       -0.06890   0.00031   0.00781   0.00000   0.00784  -0.06105
   D41        1.05576   0.00027   0.00238   0.00000   0.00211   1.05787
   D42        0.04459  -0.00010  -0.00378   0.00000  -0.00390   0.04069
   D43       -0.02097   0.00003   0.00038   0.00000   0.00055  -0.02042
   D44       -0.38543   0.00045   0.01264   0.00000   0.01247  -0.37295
   D45        0.73465   0.00023   0.00503   0.00000   0.00558   0.74023
   D46        1.73747  -0.00069  -0.01617   0.00000  -0.01467   1.72281
   D47        0.31042   0.00016   0.00074   0.00000   0.00047   0.31089
   D48       -0.75651  -0.00058  -0.01335   0.00000  -0.01331  -0.76982
   D49       -1.75514  -0.00010  -0.00338   0.00000  -0.00385  -1.75898
         Item               Value     Threshold  Converged?
 Maximum Force            0.007272     0.000450     NO 
 RMS     Force            0.001871     0.000300     NO 
 Maximum Displacement     0.108949     0.001800     NO 
 RMS     Displacement     0.025393     0.001200     NO 
 Predicted change in Energy=-4.720439D-03
 GradGradGradGradGradGradGradGradGradGradGradGradGradGradGradGradGradGrad

                          Input orientation:                          
 ---------------------------------------------------------------------
 Center     Atomic     Atomic              Coordinates (Angstroms)
 Number     Number      Type              X           Y           Z
 ---------------------------------------------------------------------
    1         14             0       -2.437132   -0.751431   -0.486158
    2         14             0       -0.525962   -2.381589    0.094697
    3         14             0       -1.540599    1.684391    0.150627
    4         14             0       -0.885626   -0.298043    1.617047
    5         14             0       -0.404074   -0.105457   -1.646110
    6         14             0        1.756056   -1.121050    0.001544
    7         14             0        1.104809    1.609748    0.072736
    8         14             0        1.570271    0.203805    2.058134
    9         14             0        1.996699    0.402099   -1.888685
 ---------------------------------------------------------------------
                    Distance matrix (angstroms):
                    1          2          3          4          5
     1  Si   0.000000
     2  Si   2.578251   0.000000
     3  Si   2.672545   4.191039   0.000000
     4  Si   2.652585   2.605394   2.551357   0.000000
     5  Si   2.428188   2.868107   2.779120   3.304115   0.000000
     6  Si   4.237605   2.608685   4.331357   3.204009   2.900405
     7  Si   4.293353   4.311690   2.647606   3.160125   2.858862
     8  Si   4.842022   3.864394   3.938049   2.545160   4.208931
     9  Si   4.791301   4.248122   4.279666   4.592184   2.465799
                    6          7          8          9
     6  Si   0.000000
     7  Si   2.808282   0.000000
     8  Si   2.453429   2.476921   0.000000
     9  Si   2.439438   2.470033   3.974738   0.000000
 Stoichiometry    Si9
 Framework group  C1[X(Si9)]
 Deg. of freedom    21
 Full point group                 C1
 Largest Abelian subgroup         C1      NOp   1
 Largest concise Abelian subgroup C1      NOp   1
                         Standard orientation:                         
 ---------------------------------------------------------------------
 Center     Atomic     Atomic              Coordinates (Angstroms)
 Number     Number      Type              X           Y           Z
 ---------------------------------------------------------------------
    1         14             0        2.568407   -0.594765   -0.128436
    2         14             0        1.114773    0.250840   -2.082734
    3         14             0        1.164523   -0.106833    2.092719
    4         14             0        1.054634    1.563322    0.167121
    5         14             0        0.388975   -1.664006   -0.074595
    6         14             0       -1.398442    0.207029   -1.384831
    7         14             0       -1.392805    0.002295    1.415972
    8         14             0       -1.427282    2.126650    0.142762
    9         14             0       -2.072783   -1.784532   -0.147977
 ---------------------------------------------------------------------
 Rotational constants (GHZ):      0.6914955      0.5405111      0.5300627
 Standard basis: LANL2DZ (5D, 7F)
 There are    72 symmetry adapted basis functions of A   symmetry.
 Integral buffers will be    131072 words long.
 Raffenetti 2 integral format.
 Two-electron integral symmetry is turned on.
    72 basis functions,   108 primitive gaussians,    72 cartesian basis functions
    18 alpha electrons       18 beta electrons
       nuclear repulsion energy        97.1722943652 Hartrees.
 NAtoms=    9 NActive=    9 NUniq=    9 SFac= 7.50D-01 NAtFMM=   80 NAOKFM=F Big=F
 One-electron integrals computed using PRISM.
   1 Symmetry operations used in ECPInt.
 ECPInt:  NShTT=     666 NPrTT=    1503 LenC2=     667 LenP2D=    1464.
 LDataN:  DoStor=F MaxTD1= 3 Len=   28
 LDataN:  DoStor=T MaxTD1= 3 Len=   28
 NBasis=    72 RedAO= T  NBF=    72
 NBsUse=    72 1.00D-06 NBFU=    72
 Initial guess read from the read-write file:
 Initial guess orbital symmetries:
       Occupied  (A) (A) (A) (A) (A) (A) (A) (A) (A) (A) (A) (A)
                 (A) (A) (A) (A) (A) (A)
       Virtual   (A) (A) (A) (A) (A) (A) (A) (A) (A) (A) (A) (A)
                 (A) (A) (A) (A) (A) (A) (A) (A) (A) (A) (A) (A)
                 (A) (A) (A) (A) (A) (A) (A) (A) (A) (A) (A) (A)
                 (A) (A) (A) (A) (A) (A) (A) (A) (A) (A) (A) (A)
                 (A) (A) (A) (A) (A) (A)
 Harris functional with IExCor=  402 diagonalized for initial guess.
 ExpMin= 8.85D-02 ExpMax= 2.58D+00 ExpMxC= 2.58D+00 IAcc=2 IRadAn=         4 AccDes= 0.00D+00
 HarFok:  IExCor= 402 AccDes= 0.00D+00 IRadAn=         4 IDoV=1
 ScaDFX=  1.000000  1.000000  1.000000  1.000000
 Requested convergence on RMS density matrix=1.00D-08 within 128 cycles.
 Requested convergence on MAX density matrix=1.00D-06.
 Requested convergence on             energy=1.00D-06.
 No special actions if energy rises.
 Keep R1 integrals in memory in canonical form, NReq=     5254974.
 Integral accuracy reduced to 1.0D-05 until final iterations.
 Initial convergence to 1.0D-05 achieved.  Increase integral accuracy.
 SCF Done:  E(RB+HF-LYP) =  -34.7247525360     A.U. after   18 cycles
             Convg  =    0.5228D-08             -V/T =  3.6533
             S**2   =   0.0000
 QCSCF skips out because SCF is already converged.
 Range of M.O.s used for correlation:     1    72
 NBasis=    72 NAE=    18 NBE=    18 NFC=     0 NFV=     0
 NROrb=     72 NOA=    18 NOB=    18 NVA=    54 NVB=    54
   1 Symmetry operations used in ECPInt.
 ECPInt:  NShTT=     666 NPrTT=    1503 LenC2=     667 LenP2D=    1464.
 LDataN:  DoStor=F MaxTD1= 4 Len=   56
 LDataN:  DoStor=T MaxTD1= 4 Len=   56
 Symmetrizing basis deriv contribution to polar:
 IMax=3 JMax=2 DiffMx= 0.00D+00
 G2DrvN: will do   10 centers at a time, making    1 passes doing MaxLOS=1.
 FoFDir/FoFCou used for L=0 through L=1.
 DoAtom=TTTTTTTTT
          Differentiating once with respect to electric field.
                with respect to dipole field.
          Differentiating once with respect to nuclear coordinates.
          Store integrals in memory, NReq=     4257025.
          There are  30 degrees of freedom in the 1st order CPHF.
    27 vectors were produced by pass  0.
 AX will form  27 AO Fock derivatives at one time.
    27 vectors were produced by pass  1.
    27 vectors were produced by pass  2.
    27 vectors were produced by pass  3.
    27 vectors were produced by pass  4.
    27 vectors were produced by pass  5.
    21 vectors were produced by pass  6.
     3 vectors were produced by pass  7.
     3 vectors were produced by pass  8.
 Inv2:  IOpt= 1 Iter= 1 AM= 2.09D-15 Conv= 1.00D-12.
 Inverted reduced A of dimension  189 with in-core refinement.
 Isotropic polarizability for W=    0.000000      278.30 Bohr**3.
 End of Minotr Frequency-dependent properties file   721 does not exist.
   1 Symmetry operations used in ECPInt.
 ECPInt:  NShTT=     666 NPrTT=    1503 LenC2=     667 LenP2D=    1503.
 LDataN:  DoStor=F MaxTD1= 5 Len=  102
 LDataN:  DoStor=T MaxTD1= 5 Len=  102
 ***** Axes restored to original set *****
 -------------------------------------------------------------------
 Center     Atomic                   Forces (Hartrees/Bohr)
 Number     Number              X              Y              Z
 -------------------------------------------------------------------
    1         14          -0.000555346   -0.000515091   -0.004619758
    2         14           0.001421521   -0.002082938    0.003828435
    3         14           0.000385408    0.003464444    0.005228725
    4         14           0.000738025   -0.000011484   -0.000579067
    5         14          -0.003882159   -0.001534419   -0.007334813
    6         14           0.001866294   -0.003972590    0.002028740
    7         14           0.000650429    0.003345181    0.001420907
    8         14           0.000309299    0.000944733   -0.001389383
    9         14          -0.000933471    0.000362164    0.001416214
 -------------------------------------------------------------------
 Cartesian Forces:  Max     0.007334813 RMS     0.002704367

 GradGradGradGradGradGradGradGradGradGradGradGradGradGradGradGradGradGrad
 Berny optimization.
 Internal  Forces:  Max     0.002819673 RMS     0.000814074
 Search for a local minimum.
 Step number   4 out of a maximum of 100
 All quantities printed in internal units (Hartrees-Bohrs-Radians)
 Second derivative matrix not updated -- analytic derivatives used.
     Eigenvalues ---   -0.00087   0.00214   0.00484   0.00830   0.00963
     Eigenvalues ---    0.01263   0.01699   0.01810   0.01977   0.02387
     Eigenvalues ---    0.02597   0.02707   0.02962   0.03504   0.04158
[...]
   A30        1.05253   0.00000   0.00000  -0.00001  -0.00001   1.05252
   A31        1.09136   0.00000   0.00000  -0.00012  -0.00012   1.09124
   A32        1.23524   0.00000   0.00000   0.00027   0.00027   1.23551
    D1       -1.67688   0.00000   0.00000   0.00010   0.00010  -1.67677
    D2        1.74050   0.00000   0.00000   0.00010   0.00010   1.74060
    D3        0.00000   0.00000   0.00000   0.00000   0.00000   0.00000
    D4        0.73634   0.00000   0.00000   0.00009   0.00009   0.73642
    D5       -0.63979   0.00000   0.00000   0.00003   0.00003  -0.63976
    D6        0.21208   0.00000   0.00000   0.00035   0.00035   0.21243
    D7        0.99531   0.00000   0.00000  -0.00011  -0.00011   0.99520
    D8       -1.01119   0.00000   0.00000   0.00010   0.00010  -1.01109
    D9        1.67687   0.00000   0.00000  -0.00010  -0.00010   1.67677
   D10       -0.32963   0.00000   0.00000   0.00011   0.00011  -0.32952
   D11       -0.60944   0.00000   0.00000  -0.00003  -0.00003  -0.60946
   D12        0.01558   0.00000   0.00000   0.00003   0.00003   0.01561
   D13        1.08065   0.00000   0.00000   0.00014   0.00014   1.08079
   D14        0.63031   0.00000   0.00000   0.00005   0.00005   0.63036
   D15        1.56897   0.00000   0.00000  -0.00003  -0.00003   1.56894
   D16        0.63031   0.00000   0.00000   0.00005   0.00005   0.63036
   D17       -0.63031   0.00000   0.00000  -0.00005  -0.00005  -0.63036
   D18        0.30835   0.00000   0.00000  -0.00014  -0.00014   0.30821
   D19       -0.63031   0.00000   0.00000  -0.00005  -0.00005  -0.63036
   D20       -1.06344   0.00000   0.00000  -0.00002  -0.00002  -1.06346
   D21        1.05623   0.00000   0.00000   0.00000   0.00000   1.05623
   D22       -1.74050   0.00000   0.00000  -0.00009  -0.00009  -1.74060
   D23        0.37916   0.00000   0.00000  -0.00007  -0.00007   0.37909
   D24        0.59229   0.00000   0.00000  -0.00001  -0.00001   0.59228
   D25        0.03898   0.00000   0.00000   0.00007   0.00007   0.03905
   D26       -0.85615   0.00000   0.00000   0.00020   0.00020  -0.85595
   D27       -0.60918   0.00000   0.00000   0.00001   0.00001  -0.60917
   D28       -1.61463   0.00000   0.00000   0.00009   0.00009  -1.61454
   D29       -0.60917   0.00000   0.00000   0.00001   0.00001  -0.60917
   D30        0.60918   0.00000   0.00000  -0.00001  -0.00001   0.60917
   D31       -0.39628   0.00000   0.00000   0.00006   0.00006  -0.39621
   D32        0.60918   0.00000   0.00000  -0.00001  -0.00001   0.60917
   D33       -0.73634   0.00000   0.00000  -0.00009  -0.00009  -0.73642
   D34        0.63979   0.00000   0.00000  -0.00003  -0.00003   0.63976
   D35        0.31250   0.00000   0.00000  -0.00013  -0.00013   0.31236
   D36        1.68862   0.00000   0.00000  -0.00008  -0.00008   1.68855
   D37       -1.76121   0.00000   0.00000  -0.00001  -0.00001  -1.76122
   D38       -0.38509   0.00000   0.00000   0.00005   0.00005  -0.38504
   D39       -1.70260   0.00000   0.00000  -0.00014  -0.00014  -1.70274
   D40       -1.04341   0.00000   0.00000  -0.00003  -0.00003  -1.04345
   D41        1.56274  -0.00001   0.00000  -0.00030  -0.00030   1.56244
   D42        0.99347   0.00000   0.00000  -0.00020  -0.00020   0.99326
   D43        0.00000   0.00000   0.00000   0.00000   0.00000   0.00000
   D44       -0.30316   0.00000   0.00000   0.00013   0.00013  -0.30303
   D45        1.70260   0.00000   0.00000   0.00014   0.00014   1.70274
   D46        2.51619   0.00000   0.00000   0.00028   0.00028   2.51647
   D47        0.37632   0.00000   0.00000  -0.00007  -0.00007   0.37625
   D48       -1.56274   0.00001   0.00000   0.00030   0.00030  -1.56244
   D49       -2.18408   0.00000   0.00000   0.00037   0.00037  -2.18371
         Item               Value     Threshold  Converged?
 Maximum Force            0.000011     0.000450     YES
 RMS     Force            0.000003     0.000300     YES
 Maximum Displacement     0.000718     0.001800     YES
 RMS     Displacement     0.000146     0.001200     YES
 Predicted change in Energy=-1.650809D-08
 Optimization completed.
    -- Stationary point found.
                           ----------------------------
                           !   Optimized Parameters   !
                           ! (Angstroms and Degrees)  !
 --------------------------                            --------------------------
 ! Name  Definition              Value          Derivative Info.                !
 --------------------------------------------------------------------------------
 ! R1    R(1,2)                  2.3839         -DE/DX =    0.0                 !
 ! R2    R(1,3)                  2.3857         -DE/DX =    0.0                 !
 ! R3    R(1,4)                  2.618          -DE/DX =    0.0                 !
 ! R4    R(1,5)                  2.5447         -DE/DX =    0.0                 !
 ! R5    R(2,4)                  2.3839         -DE/DX =    0.0                 !
 ! R6    R(2,5)                  4.1255         -DE/DX =    0.0                 !
 ! R7    R(2,6)                  2.392          -DE/DX =    0.0                 !
 ! R8    R(3,4)                  2.3857         -DE/DX =    0.0                 !
 ! R9    R(3,5)                  3.865          -DE/DX =    0.0                 !
 ! R10   R(3,7)                  2.4487         -DE/DX =    0.0                 !
 ! R11   R(4,8)                  2.5447         -DE/DX =    0.0                 !
 ! R12   R(5,6)                  2.6445         -DE/DX =    0.0                 !
 ! R13   R(5,7)                  2.4504         -DE/DX =    0.0                 !
 ! R14   R(5,9)                  2.4879         -DE/DX =    0.0                 !
 ! R15   R(6,7)                  2.9881         -DE/DX =    0.0                 !
 ! R16   R(6,8)                  2.6445         -DE/DX =    0.0                 !
 ! R17   R(6,9)                  2.3446         -DE/DX =    0.0                 !
 ! R18   R(7,8)                  2.4504         -DE/DX =    0.0                 !
 ! R19   R(7,9)                  2.5018         -DE/DX =    0.0                 !
 ! A1    A(2,1,3)              109.7845         -DE/DX =    0.0                 !
 ! A2    A(4,1,5)              105.9005         -DE/DX =    0.0                 !
 ! A3    A(1,2,6)               68.6928         -DE/DX =    0.0                 !
 ! A4    A(4,2,5)               73.0842         -DE/DX =    0.0                 !
 ! A5    A(4,2,6)               68.6929         -DE/DX =    0.0                 !
 ! A6    A(1,3,7)               73.5204         -DE/DX =    0.0                 !
 ! A7    A(4,3,5)               78.5847         -DE/DX =    0.0                 !
 ! A8    A(4,3,7)               73.5204         -DE/DX =    0.0                 !
 ! A9    A(1,4,8)              105.9003         -DE/DX =    0.0                 !
 ! A10   A(2,4,3)              109.7845         -DE/DX =    0.0                 !
 ! A11   A(2,4,8)              113.6232         -DE/DX =    0.0                 !
 ! A12   A(3,4,8)              103.1926         -DE/DX =    0.0                 !
 ! A13   A(1,5,6)               62.53           -DE/DX =    0.0                 !
 ! A14   A(1,5,7)               70.774          -DE/DX =    0.0                 !
 ! A15   A(1,5,9)              108.3265         -DE/DX =    0.0                 !
 ! A16   A(2,5,3)               58.3501         -DE/DX =    0.0                 !
 ! A17   A(2,5,7)               77.2558         -DE/DX =    0.0                 !
 ! A18   A(2,5,9)               85.9918         -DE/DX =    0.0                 !
 ! A19   A(3,5,6)               74.4683         -DE/DX =    0.0                 !
 ! A20   A(3,5,9)               93.6913         -DE/DX =    0.0                 !
 ! A21   A(2,6,7)              105.8905         -DE/DX =    0.0                 !
 ! A22   A(2,6,8)              109.895          -DE/DX =    0.0                 !
 ! A23   A(2,6,9)              160.2389         -DE/DX =    0.0                 !
 ! A24   A(5,6,8)               98.6853         -DE/DX =    0.0                 !
 ! A25   A(8,6,9)               59.4622         -DE/DX =    0.0                 !
 ! A26   A(3,7,6)               96.0128         -DE/DX =    0.0                 !
 ! A27   A(3,7,8)              104.1701         -DE/DX =    0.0                 !
 ! A28   A(3,7,9)              145.6113         -DE/DX =    0.0                 !
 ! A29   A(5,7,8)              109.9125         -DE/DX =    0.0                 !
 ! A30   A(8,7,9)               60.3054         -DE/DX =    0.0                 !
 ! A31   A(4,8,6)               62.5301         -DE/DX =    0.0                 !
 ! A32   A(4,8,7)               70.7741         -DE/DX =    0.0                 !
 ! D1    D(3,1,2,6)            -96.0779         -DE/DX =    0.0                 !
 ! D2    D(2,1,3,7)             99.7235         -DE/DX =    0.0                 !
 ! D3    D(5,1,4,8)              0.0            -DE/DX =    0.0                 !
 ! D4    D(4,1,5,6)             42.189          -DE/DX =    0.0                 !
 ! D5    D(4,1,5,7)            -36.6571         -DE/DX =    0.0                 !
 ! D6    D(4,1,5,9)             12.1512         -DE/DX =    0.0                 !
 ! D7    D(5,2,4,3)             57.0273         -DE/DX =    0.0                 !
 ! D8    D(5,2,4,8)            -57.9371         -DE/DX =    0.0                 !
 ! D9    D(6,2,4,3)             96.0778         -DE/DX =    0.0                 !
 ! D10   D(6,2,4,8)            -18.8866         -DE/DX =    0.0                 !
 ! D11   D(4,2,5,3)            -34.9181         -DE/DX =    0.0                 !
 ! D12   D(4,2,5,7)              0.8924         -DE/DX =    0.0                 !
 ! D13   D(4,2,5,9)             61.9167         -DE/DX =    0.0                 !
 ! D14   D(1,2,6,7)             36.1141         -DE/DX =    0.0                 !
 ! D15   D(1,2,6,8)             89.8955         -DE/DX =    0.0                 !
 ! D16   D(1,2,6,9)             36.114          -DE/DX =    0.0                 !
 ! D17   D(4,2,6,7)            -36.114          -DE/DX =    0.0                 !
 ! D18   D(4,2,6,8)             17.6674         -DE/DX =    0.0                 !
 ! D19   D(4,2,6,9)            -36.114          -DE/DX =    0.0                 !
 ! D20   D(5,3,4,2)            -60.9305         -DE/DX =    0.0                 !
 ! D21   D(5,3,4,8)             60.5174         -DE/DX =    0.0                 !
 ! D22   D(7,3,4,2)            -99.7235         -DE/DX =    0.0                 !
 ! D23   D(7,3,4,8)             21.7243         -DE/DX =    0.0                 !
 ! D24   D(4,3,5,2)             33.9358         -DE/DX =    0.0                 !
 ! D25   D(4,3,5,6)              2.2332         -DE/DX =    0.0                 !
 ! D26   D(4,3,5,9)            -49.0538         -DE/DX =    0.0                 !
 ! D27   D(1,3,7,6)            -34.9032         -DE/DX =    0.0                 !
 ! D28   D(1,3,7,8)            -92.5115         -DE/DX =    0.0                 !
 ! D29   D(1,3,7,9)            -34.9031         -DE/DX =    0.0                 !
 ! D30   D(4,3,7,6)             34.9033         -DE/DX =    0.0                 !
 ! D31   D(4,3,7,8)            -22.7051         -DE/DX =    0.0                 !
 ! D32   D(4,3,7,9)             34.9034         -DE/DX =    0.0                 !
 ! D33   D(1,4,8,6)            -42.1889         -DE/DX =    0.0                 !
 ! D34   D(1,4,8,7)             36.6573         -DE/DX =    0.0                 !
 ! D35   D(2,4,8,6)             17.9048         -DE/DX =    0.0                 !
 ! D36   D(2,4,8,7)             96.751          -DE/DX =    0.0                 !
 ! D37   D(3,4,8,6)           -100.91           -DE/DX =    0.0                 !
 ! D38   D(3,4,8,7)            -22.0638         -DE/DX =    0.0                 !
 ! D39   D(1,5,6,8)            -97.5518         -DE/DX =    0.0                 !
 ! D40   D(3,5,6,8)            -59.7832         -DE/DX =    0.0                 !
 ! D41   D(1,5,7,8)             89.5383         -DE/DX =    0.0                 !
 ! D42   D(2,5,7,8)             56.9214         -DE/DX =    0.0                 !
 ! D43   D(2,6,7,3)             -0.0001         -DE/DX =    0.0                 !
 ! D44   D(2,6,8,4)            -17.3697         -DE/DX =    0.0                 !
 ! D45   D(5,6,8,4)             97.5519         -DE/DX =    0.0                 !
 ! D46   D(9,6,8,4)            144.1671         -DE/DX =    0.0                 !
 ! D47   D(3,7,8,4)             21.5616         -DE/DX =    0.0                 !
 ! D48   D(5,7,8,4)            -89.5384         -DE/DX =    0.0                 !
 ! D49   D(9,7,8,4)           -125.1383         -DE/DX =    0.0                 !
 --------------------------------------------------------------------------------
 GradGradGradGradGradGradGradGradGradGradGradGradGradGradGradGradGradGrad

 1\1\GINC-NODE28\Freq\RB3LYP\6-311+G(d)\Si9\TAM\04-Apr-2011\0\\#N Geom=
 AllCheck Guess=Read SCRF=Check GenChk RB3LYP/6-311+G(d) Freq\\si9-n\\0
 ,1\Si,-1.6212034691,-0.547042488,-0.614057189\Si,-0.9848670759,-2.4195
 267964,0.7169854719\Si,-1.8641980823,1.3815752968,0.7690143241\Si,-0.5
 094041127,-0.3221383461,1.745431925\Si,0.1553802489,0.1619216744,-2.29
 2305426\Si,0.9213683156,-1.3744925533,-0.2808516876\Si,0.3387664934,1.
 5562465425,-0.2856787927\Si,1.8593110297,0.5066055317,1.3238205283\Si,
 2.3392886524,0.2993241385,-1.108527154\\Version=AM64L-G03RevE.01\State
 =1-A\HF=-2605.5721436\RMSD=4.266e-09\RMSF=7.986e-06\ZeroPoint=0.013092
 \Thermal=0.0258426\Dipole=0.1128554,-0.0334571,-0.0499932\DipoleDeriv=
 -0.0999027,0.0079817,0.0513105,0.0799364,-0.1512127,0.0252564,-0.04496
 22,0.0034402,-0.1490938,0.1067034,-0.0041189,0.011269,0.1093227,0.2165
 681,-0.0597855,0.0004559,-0.0063314,0.1301731,0.1641984,-0.0756314,-0.
 0025302,-0.1747781,0.187257,0.078188,0.0069208,0.0314694,0.1372684,-0.
 1346045,-0.006589,-0.0656962,0.0365578,-0.1615144,-0.0755756,0.0196043
 ,0.0004766,-0.1040857,-0.0219188,-0.0030922,-0.0195999,-0.0361569,-0.0
 303861,0.0113132,0.0343664,-0.0037895,0.2512036,-0.2649115,0.046686,0.
 0138888,-0.0067174,0.06577,-0.0246452,0.0189796,-0.0498087,-0.2301862,
 -0.24108,-0.0923989,-0.0462546,-0.101729,-0.1325264,0.0264502,-0.04536
 49,0.0220527,-0.3386579,0.1331019,0.0376894,0.1567938,-0.00288,-0.0217
 504,0.051067,0.1098452,0.0314744,0.0875408,0.3584139,0.0894733,-0.0991
 811,0.0964445,0.0277948,-0.0322685,-0.0998451,-0.0289837,0.2158378\Pol
 ar=290.6085156,11.6321045,265.7393353,-16.7207554,-6.2687005,265.95301
 19\PG=C01 [X(Si9)]\NImag=0\\0.06599044,-0.01120457,0.09775220,0.008041
 78,-0.00206825,0.08201828,-0.00698855,0.01910863,-0.00578246,0.0587265
 4,0.00921657,-0.04513375,0.02022214,0.02017600,0.12441146,-0.00374039,
 0.02733106,-0.02279702,-0.00784144,-0.01696549,0.05147871,-0.00219729,
 0.00432850,0.00451900,-0.00021112,-0.00306418,-0.00143956,0.07604867,0
 .01271039,-0.04578606,-0.01982900,0.00411039,-0.00388268,-0.00193714,-
 0.03480420,0.09393725,0.00909854,-0.02824916,-0.02114104,-0.00212341,0
 .00144354,-0.00302303,-0.01259282,0.01147621,0.04712308,-0.01334052,-0
 .00626383,-0.00696535,-0.01045996,-0.00811988,-0.00608614,-0.02367422,
 0.02290434,-0.01518809,0.06849507,-0.00619961,0.00504173,-0.00027678,-
 0.00706749,-0.05379333,-0.02720482,0.02482420,-0.03869921,0.01955422,-
 0.00631089,0.09962917,-0.00916610,-0.00085833,-0.02786380,-0.00508729,
 -0.01493883,-0.01066555,-0.00999258,0.00808913,-0.00675113,0.00966681,
 0.00757066,0.07763641,-0.01179556,-0.00475341,0.00965219,-0.00084117,-
 0.00122497,0.00233299,-0.00085635,-0.00020741,0.00574616,0.00280665,0.
 00238104,0.00274024,0.04816209,-0.00389598,-0.00413698,0.00627519,0.00
 120017,-0.00137788,0.00417414,-0.00326889,0.00074552,-0.00286646,-0.00
 043443,0.00538672,0.00003255,0.00659107,0.02699216,0.00790193,0.005111
 93,-0.01223964,-0.00139332,-0.00217927,-0.00027952,-0.00261181,0.00126
 583,-0.00191068,-0.00181104,-0.00049237,-0.01483863,0.01397610,0.00710
 807,0.10047594,-0.01237008,-0.00096400,-0.00138835,-0.03530980,-0.0198
 9450,0.01821473,-0.00652134,0.00969349,0.00185422,-0.00207323,0.001024
 85,0.00687344,-0.00203927,0.00341456,-0.00191592,0.09160428,0.00771964
 ,-0.00589396,-0.00555054,-0.03231644,-0.00557293,0.01569416,0.00493745
 ,-0.00751201,-0.00167012,0.01056514,-0.00533730,-0.00226076,0.00156650
 ,-0.00736865,0.00269514,0.04553031,0.08988418,-0.00236395,-0.00036962,
 0.00311147,0.01939879,0.00984088,-0.01075725,0.00230756,-0.00391116,-0
 .00133988,0.00611194,0.00114556,-0.00774179,-0.00906432,0.00982636,-0.
 01594566,-0.03560664,-0.02761483,0.04465912,-0.00291936,-0.00011843,-0
 .00505276,-0.00073011,-0.00291119,0.00208669,-0.03627838,-0.00526736,0
 .01890602,0.00366590,-0.00140578,0.00417369,-0.00371325,-0.00144347,-0
 .00356408,-0.00340916,-0.00074060,0.00127285,0.08917042,-0.00459222,-0
 .00608718,0.00481962,-0.00327618,-0.01130016,0.00291724,0.00213193,0.0
 0749445,-0.00145407,-0.00584606,-0.00687070,0.00119804,0.00013898,-0.0
 1459725,-0.01497941,0.00751008,-0.01005740,-0.00266190,-0.02127143,0.0
 5975287,-0.00102237,0.00348441,0.00210752,0.00212147,0.00274527,0.0018
 4811,0.01820073,0.00203246,-0.00599102,0.00099289,-0.00166713,-0.00369
 429,-0.00550303,-0.02044574,-0.03509891,0.00048647,0.00122588,-0.00120
 371,-0.01470172,0.00944234,0.05969346,-0.00809058,-0.00078036,-0.01087
 886,-0.00086218,0.00072197,-0.00136528,-0.00292680,-0.00208994,-0.0044
 5329,-0.01956639,-0.00791671,0.00179565,-0.00836540,-0.00065872,0.0029
 2825,-0.00437594,-0.00139181,-0.00340925,-0.01964348,0.00855443,-0.017
 82127,0.06520478,-0.00223583,0.00482875,-0.00186717,-0.00204991,-0.001
 64062,-0.00346233,0.00045548,0.00120278,0.00386310,-0.00800067,-0.0052
 8917,-0.00068890,0.00012325,-0.01040924,0.00173791,-0.00680340,-0.0099
 3849,-0.00971133,0.01145039,-0.00963521,0.01126415,0.00602576,0.026066
 47,-0.00592047,-0.00335474,-0.00338353,0.00239407,0.00272772,0.0000042
 5,0.00395388,-0.00051235,-0.00029758,0.00347232,0.00083881,-0.00331687
 ,-0.00296944,-0.00111461,-0.00848323,-0.01021803,-0.00425925,-0.011039
 27,-0.01988548,0.00641673,-0.02413207,0.02826289,0.00148233,0.08436088
 ,-0.00828850,0.00064747,0.00785480,-0.00332366,0.00510017,-0.00216160,
 -0.00338318,-0.00704969,-0.00124733,-0.00585330,0.00067038,-0.00100387
 ,-0.02335775,-0.00150431,-0.01351013,-0.02550546,-0.03587019,0.0213530
 2,-0.02614258,0.01665047,0.01724683,-0.00137401,0.00103493,0.00091027,
 0.09722844,-0.00151839,-0.00058474,-0.00172522,0.00011483,-0.00171010,
 -0.00054683,0.00445970,-0.00750005,-0.00209726,0.00150628,-0.00006791,
 0.00185644,-0.00461506,0.00476559,-0.00026785,-0.03951140,-0.03820344,
 0.02345605,0.02170788,-0.00869942,-0.00808164,-0.00246462,0.00481474,-
 0.00222464,0.02032077,0.04718532,-0.00282898,-0.00102731,0.00018775,-0
 .00168642,-0.00289595,-0.00580870,-0.00234441,0.00332602,-0.00666872,0
 .00980666,0.00053184,-0.00276436,-0.01691088,-0.00298950,-0.01167968,0
 .02170008,0.02174032,0.00025697,0.01676479,-0.00569859,0.00647091,0.00
 494115,-0.00261777,-0.03371258,-0.02944198,-0.01036905,0.05371841\\0.0
 0000891,0.00000954,0.00000422,0.00000124,0.00000209,-0.00000089,0.0000
 0192,-0.00000685,-0.00000016,0.00000181,0.00000836,-0.00001060,-0.0000
 0069,0.00000120,0.00000177,0.00000716,0.00001386,-0.00000462,-0.000015
 19,-0.00002562,0.00001011,-0.00000268,0.00000098,-0.00000148,-0.000002
 48,-0.00000357,0.00000166\\\@


 CHILDREN YOU ARE VERY LITTLE,
 AND YOUR BONES ARE VERY BRITTLE;
 IF YOU WOULD GROW GREAT AND STATELY
 YOU MUST TRY TO WALK SEDATELY.
 YOU MUST STILL BE BRIGHT AND QUIET,
 AND CONTENT WITH SIMPLE DIET;
 AND REMAIN, THROUGH ALL BEWILD'RING
 INNOCENT AND HONEST CHILDREN.
     -- A CHILD'S GARDEN OF VERSE,
        ROBERT LOUIS STEVENSON
 Job cpu time:  0 days  1 hours  3 minutes 41.9 seconds.
 File lengths (MBytes):  RWF=    133 Int=      0 D2E=      0 Chk=     11 Scr=      1
 Normal termination of Gaussian 03 at Mon Apr  4 17:23:32 2011.
