 Entering Gaussian System, Link 0=g03
 Initial command:
 /usr/local/chem/g03E01/l1.exe /temp0/tam/Gau-11075.inp -scrdir=/temp0/tam/
 Entering Link 1 = /usr/local/chem/g03E01/l1.exe PID=     11076.
  
 Copyright (c) 1988,1990,1992,1993,1995,1998,2003,2004,2007, Gaussian, Inc.
                  All Rights Reserved.
  
 This is the Gaussian(R) 03 program.  It is based on the
 the Gaussian(R) 98 system (copyright 1998, Gaussian, Inc.),
 the Gaussian(R) 94 system (copyright 1995, Gaussian, Inc.),
 the Gaussian 92(TM) system (copyright 1992, Gaussian, Inc.),
 the Gaussian 90(TM) system (copyright 1990, Gaussian, Inc.),
 the Gaussian 88(TM) system (copyright 1988, Gaussian, Inc.),
 the Gaussian 86(TM) system (copyright 1986, Carnegie Mellon
 University), and the Gaussian 82(TM) system (copyright 1983,
 Carnegie Mellon University). Gaussian is a federally registered
 trademark of Gaussian, Inc.
  
 This software contains proprietary and confidential information,
 including trade secrets, belonging to Gaussian, Inc.
  
 This software is provided under written license and may be
 used, copied, transmitted, or stored only in accord with that
 written license.
  
 The following legend is applicable only to US Government
 contracts under FAR:
  
                    RESTRICTED RIGHTS LEGEND
  
 Use, reproduction and disclosure by the US Government is
 subject to restrictions as set forth in subparagraphs (a)
 and (c) of the Commercial Computer Software - Restricted
 Rights clause in FAR 52.227-19.
  
 Gaussian, Inc.
 340 Quinnipiac St., Bldg. 40, Wallingford CT 06492
  
  
 ---------------------------------------------------------------
 Warning -- This program may not be used in any manner that
 competes with the business of Gaussian, Inc. or will provide
 assistance to any competitor of Gaussian, Inc.  The licensee
 of this program is prohibited from giving any competitor of
 Gaussian, Inc. access to this program.  By using this program,
 the user acknowledges that Gaussian, Inc. is engaged in the
 business of creating and licensing software in the field of
 computational chemistry and represents and warrants to the
 licensee that it is not a competitor of Gaussian, Inc. and that
 it will not use this program in any manner prohibited above.
 ---------------------------------------------------------------
  

 Cite this work as:
 Gaussian 03, Revision E.01,
 M. J. Frisch, G. W. Trucks, H. B. Schlegel, G. E. Scuseria, 
 M. A. Robb, J. R. Cheeseman, J. A. Montgomery, Jr., T. Vreven, 
 K. N. Kudin, J. C. Burant, J. M. Millam, S. S. Iyengar, J. Tomasi, 
 V. Barone, B. Mennucci, M. Cossi, G. Scalmani, N. Rega, 
 G. A. Petersson, H. Nakatsuji, M. Hada, M. Ehara, K. Toyota, 
 R. Fukuda, J. Hasegawa, M. Ishida, T. Nakajima, Y. Honda, O. Kitao, 
 H. Nakai, M. Klene, X. Li, J. E. Knox, H. P. Hratchian, J. B. Cross, 
 V. Bakken, C. Adamo, J. Jaramillo, R. Gomperts, R. E. Stratmann, 
 O. Yazyev, A. J. Austin, R. Cammi, C. Pomelli, J. W. Ochterski, 
 P. Y. Ayala, K. Morokuma, G. A. Voth, P. Salvador, J. J. Dannenberg, 
 V. G. Zakrzewski, S. Dapprich, A. D. Daniels, M. C. Strain, 
 O. Farkas, D. K. Malick, A. D. Rabuck, K. Raghavachari, 
 J. B. Foresman, J. V. Ortiz, Q. Cui, A. G. Baboul, S. Clifford, 
 J. Cioslowski, B. B. Stefanov, G. Liu, A. Liashenko, P. Piskorz, 
 I. Komaromi, R. L. Martin, D. J. Fox, T. Keith, M. A. Al-Laham, 
 C. Y. Peng, A. Nanayakkara, M. Challacombe, P. M. W. Gill, 
 B. Johnson, W. Chen, M. W. Wong, C. Gonzalez, and J. A. Pople, 
 Gaussian, Inc., Wallingford CT, 2004.
 
 ******************************************
 Gaussian 03:  AM64L-G03RevE.01 11-Sep-2007
                 9-Nov-2010 
 ******************************************
 %NprocShared=4
 Will use up to    4 processors via shared memory.
 %mem=3750MB
 %chk=S9L-an-d-01
 ----------------------------------------------------------------------
 # b3lyp/LANL2DZ opt=(calcall,noeigentest,maxcycle=500) nosym scfcyc=50
 0 scf=xqc
 ----------------------------------------------------------------------
 1/6=500,10=4,11=1,14=-1,18=20,26=3,38=1/1,3;
 2/9=110,15=1,17=6,18=5,40=1/2;
 3/5=6,6=3,11=2,16=1,25=1,30=1,74=-5/1,2,3;
 4//1;
 5/5=2,7=500,8=3,13=1,38=5/2,8;
 8/6=4,10=90,11=11/1;
 11/6=1,8=1,9=11,15=111,16=1,31=1/1,2,10;
 10/6=1,31=1/2;
 6/7=2,8=2,9=2,10=2,18=1,28=1/1;
 7/10=1,25=1,30=1/1,2,3,16;
 1/6=500,10=4,11=1,14=-1,18=20/3(3);
 2/9=110,15=1/2;
 7/8=1,9=1,25=1,30=1,44=-1/16;
 99//99;
 2/9=110,15=1/2;
 3/5=6,6=3,11=2,16=1,25=1,30=1,74=-5/1,2,3;
 4/5=5,16=3/1;
 5/5=2,7=500,8=3,13=1,38=5/2,8;
 8/6=4,10=90,11=11/1;
 11/6=1,8=1,9=11,15=111,16=1,31=1/1,2,10;
 10/6=1,31=1/2;
 7/10=1,25=1,30=1/1,2,3,16;
 1/6=500,10=4,11=1,14=-1,18=20/3(-8);
 2/9=110,15=1/2;
 6/7=2,8=2,9=2,10=2,18=1,19=2,28=1/1;
 7/8=1,9=1,25=1,30=1,44=-1/16;
 99//99;
 -----------------
 si9-an-doublet-01
 -----------------
 Symbolic Z-matrix:
 Charge = -1 Multiplicity = 2
 Si                   -0.86675   1.95621  -1.119 
 Si                   -0.98467  -1.66144   1.26508 
 Si                    1.35196   1.01202  -0.84873 
 Si                    1.29586  -0.89992   0.99513 
 Si                   -0.81571   0.82951   1.12111 
 Si                   -0.44975  -1.43158  -1.06273 
 Si                    1.91343  -1.23414  -1.3254 
 Si                    1.50685   1.43736   1.4847 
 Si                   -2.27471   0.06862  -0.84045 
 

 GradGradGradGradGradGradGradGradGradGradGradGradGradGradGradGradGradGrad
 Berny optimization.
 Initialization pass.
                           ----------------------------
                           !    Initial Parameters    !
                           ! (Angstroms and Degrees)  !
 --------------------------                            --------------------------
 ! Name  Definition              Value          Derivative Info.                !
 --------------------------------------------------------------------------------
 ! R1    R(1,3)                  2.4264         calculate D2E/DX2 analytically  !
 ! R2    R(1,5)                  2.508          calculate D2E/DX2 analytically  !
 ! R3    R(1,9)                  2.3713         calculate D2E/DX2 analytically  !
 ! R4    R(2,4)                  2.4194         calculate D2E/DX2 analytically  !
 ! R5    R(2,5)                  2.5008         calculate D2E/DX2 analytically  !
 ! R6    R(2,6)                  2.3995         calculate D2E/DX2 analytically  !
 ! R7    R(3,4)                  2.6568         calculate D2E/DX2 analytically  !
 ! R8    R(3,5)                  2.9347         calculate D2E/DX2 analytically  !
 ! R9    R(3,7)                  2.3638         calculate D2E/DX2 analytically  !
 ! R10   R(3,8)                  2.3769         calculate D2E/DX2 analytically  !
 ! R11   R(4,5)                  2.7323         calculate D2E/DX2 analytically  !
 ! R12   R(4,6)                  2.7504         calculate D2E/DX2 analytically  !
 ! R13   R(4,7)                  2.4244         calculate D2E/DX2 analytically  !
 ! R14   R(4,8)                  2.3973         calculate D2E/DX2 analytically  !
 ! R15   R(5,8)                  2.4282         calculate D2E/DX2 analytically  !
 ! R16   R(5,9)                  2.5603         calculate D2E/DX2 analytically  !
 ! R17   R(6,7)                  2.3859         calculate D2E/DX2 analytically  !
 ! R18   R(6,9)                  2.3729         calculate D2E/DX2 analytically  !
 ! A1    A(3,1,9)              102.7145         calculate D2E/DX2 analytically  !
 ! A2    A(5,2,6)               80.426          calculate D2E/DX2 analytically  !
 ! A3    A(1,3,4)              109.7577         calculate D2E/DX2 analytically  !
 ! A4    A(1,3,7)              124.3678         calculate D2E/DX2 analytically  !
 ! A5    A(1,3,8)               95.6991         calculate D2E/DX2 analytically  !
 ! A6    A(5,3,7)              104.5784         calculate D2E/DX2 analytically  !
 ! A7    A(7,3,8)              110.6415         calculate D2E/DX2 analytically  !
 ! A8    A(2,4,3)              108.8959         calculate D2E/DX2 analytically  !
 ! A9    A(2,4,7)              107.6681         calculate D2E/DX2 analytically  !
 ! A10   A(2,4,8)              111.5334         calculate D2E/DX2 analytically  !
 ! A11   A(3,4,6)               68.4841         calculate D2E/DX2 analytically  !
 ! A12   A(5,4,6)               70.5103         calculate D2E/DX2 analytically  !
 ! A13   A(5,4,7)              109.1622         calculate D2E/DX2 analytically  !
 ! A14   A(6,4,8)              113.3982         calculate D2E/DX2 analytically  !
 ! A15   A(7,4,8)              107.9055         calculate D2E/DX2 analytically  !
 ! A16   A(1,5,2)              119.8352         calculate D2E/DX2 analytically  !
 ! A17   A(1,5,4)              105.0042         calculate D2E/DX2 analytically  !
 ! A18   A(1,5,8)               92.3352         calculate D2E/DX2 analytically  !
 ! A19   A(2,5,3)               98.6551         calculate D2E/DX2 analytically  !
 ! A20   A(2,5,8)              107.779          calculate D2E/DX2 analytically  !
 ! A21   A(2,5,9)               73.1178         calculate D2E/DX2 analytically  !
 ! A22   A(3,5,9)               85.707          calculate D2E/DX2 analytically  !
 ! A23   A(4,5,9)              102.5303         calculate D2E/DX2 analytically  !
 ! A24   A(8,5,9)              137.2375         calculate D2E/DX2 analytically  !
 ! A25   A(2,6,7)              109.6048         calculate D2E/DX2 analytically  !
 ! A26   A(2,6,9)               78.3597         calculate D2E/DX2 analytically  !
 ! A27   A(4,6,9)              107.207          calculate D2E/DX2 analytically  !
 ! A28   A(7,6,9)              136.0348         calculate D2E/DX2 analytically  !
 ! A29   A(3,7,6)               79.6985         calculate D2E/DX2 analytically  !
 ! A30   A(1,9,6)               92.0407         calculate D2E/DX2 analytically  !
 ! A31   A(5,9,6)               79.7113         calculate D2E/DX2 analytically  !
 ! D1    D(9,1,3,4)            -36.1485         calculate D2E/DX2 analytically  !
 ! D2    D(9,1,3,7)             27.2355         calculate D2E/DX2 analytically  !
 ! D3    D(9,1,3,8)            -92.5957         calculate D2E/DX2 analytically  !
 ! D4    D(3,1,9,6)            -13.8037         calculate D2E/DX2 analytically  !
 ! D5    D(6,2,5,1)             16.0002         calculate D2E/DX2 analytically  !
 ! D6    D(6,2,5,3)            -35.1825         calculate D2E/DX2 analytically  !
 ! D7    D(6,2,5,8)            -87.4873         calculate D2E/DX2 analytically  !
 ! D8    D(6,2,5,9)             47.6179         calculate D2E/DX2 analytically  !
 ! D9    D(5,2,6,7)             83.8278         calculate D2E/DX2 analytically  !
 ! D10   D(5,2,6,9)            -51.1411         calculate D2E/DX2 analytically  !
 ! D11   D(1,3,4,2)             20.0424         calculate D2E/DX2 analytically  !
 ! D12   D(1,3,4,6)             57.9588         calculate D2E/DX2 analytically  !
 ! D13   D(7,3,5,2)             -0.7861         calculate D2E/DX2 analytically  !
 ! D14   D(7,3,5,9)            -72.9675         calculate D2E/DX2 analytically  !
 ! D15   D(1,3,7,6)            -20.5813         calculate D2E/DX2 analytically  !
 ! D16   D(5,3,7,6)             36.4803         calculate D2E/DX2 analytically  !
 ! D17   D(8,3,7,6)             92.1359         calculate D2E/DX2 analytically  !
 ! D18   D(6,4,5,1)            -56.0907         calculate D2E/DX2 analytically  !
 ! D19   D(6,4,5,9)              1.4384         calculate D2E/DX2 analytically  !
 ! D20   D(7,4,5,1)            -16.9485         calculate D2E/DX2 analytically  !
 ! D21   D(7,4,5,9)             40.5806         calculate D2E/DX2 analytically  !
 ! D22   D(3,4,6,9)            -72.635          calculate D2E/DX2 analytically  !
 ! D23   D(5,4,6,9)             -1.5861         calculate D2E/DX2 analytically  !
 ! D24   D(8,4,6,9)            -38.5821         calculate D2E/DX2 analytically  !
 ! D25   D(2,5,9,6)            -48.4688         calculate D2E/DX2 analytically  !
 ! D26   D(3,5,9,6)             51.9294         calculate D2E/DX2 analytically  !
 ! D27   D(4,5,9,6)             -1.5975         calculate D2E/DX2 analytically  !
 ! D28   D(8,5,9,6)             49.6841         calculate D2E/DX2 analytically  !
 ! D29   D(2,6,7,3)            -83.9585         calculate D2E/DX2 analytically  !
 ! D30   D(9,6,7,3)              9.5249         calculate D2E/DX2 analytically  !
 ! D31   D(2,6,9,1)            109.6881         calculate D2E/DX2 analytically  !
 ! D32   D(2,6,9,5)             49.6632         calculate D2E/DX2 analytically  !
 ! D33   D(4,6,9,1)             61.6467         calculate D2E/DX2 analytically  !
 ! D34   D(4,6,9,5)              1.6218         calculate D2E/DX2 analytically  !
 ! D35   D(7,6,9,1)              3.4348         calculate D2E/DX2 analytically  !
 ! D36   D(7,6,9,5)            -56.5901         calculate D2E/DX2 analytically  !
 --------------------------------------------------------------------------------
 Trust Radius=3.00D-01 FncErr=1.00D-07 GrdErr=1.00D-06
 Number of steps in this run= 100 maximum allowed number of steps= 100.
 GradGradGradGradGradGradGradGradGradGradGradGradGradGradGradGradGradGrad

                          Input orientation:                          
 ---------------------------------------------------------------------
 Center     Atomic     Atomic              Coordinates (Angstroms)
 Number     Number      Type              X           Y           Z
 ---------------------------------------------------------------------
    1         14             0       -0.866749    1.956211   -1.119004
    2         14             0       -0.984667   -1.661436    1.265078
    3         14             0        1.351959    1.012020   -0.848727
    4         14             0        1.295861   -0.899915    0.995131
    5         14             0       -0.815714    0.829512    1.121114
    6         14             0       -0.449751   -1.431581   -1.062731
    7         14             0        1.913427   -1.234140   -1.325396
    8         14             0        1.506845    1.437359    1.484696
    9         14             0       -2.274713    0.068618   -0.840449
 ---------------------------------------------------------------------
                    Distance matrix (angstroms):
                    1          2          3          4          5
     1  Si   0.000000
     2  Si   4.334181   0.000000
     3  Si   2.426358   4.132234   0.000000
     4  Si   4.159796   2.419420   2.656775   0.000000
     5  Si   2.508024   2.500818   2.934687   2.732314   0.000000
     6  Si   3.413823   2.399513   3.043541   2.750387   3.164751
     7  Si   4.236781   3.910510   2.363830   2.424446   4.206219
     8  Si   3.561237   3.982260   2.376924   2.397298   2.428158
     9  Si   2.371279   3.015054   3.747376   4.129941   2.560345
                    6          7          8          9
     6  Si   0.000000
     7  Si   2.385914   0.000000
     8  Si   4.306793   3.898568   0.000000
     9  Si   2.372866   4.412807   4.645421   0.000000
 Symmetry turned off by external request.
 Stoichiometry    Si9(1-,2)
 Framework group  C1[X(Si9)]
 Deg. of freedom    21
 Full point group                 C1
 Rotational constants (GHZ):      0.6910692      0.6279627      0.5625866
 Standard basis: LANL2DZ (5D, 7F)
 Integral buffers will be    131072 words long.
 Raffenetti 2 integral format.
 Two-electron integral symmetry is turned off.
    72 basis functions,   108 primitive gaussians,    72 cartesian basis functions
    19 alpha electrons       18 beta electrons
       nuclear repulsion energy       100.8297801185 Hartrees.
 NAtoms=    9 NActive=    9 NUniq=    9 SFac= 7.50D-01 NAtFMM=   80 NAOKFM=F Big=F
 One-electron integrals computed using PRISM.
   1 Symmetry operations used in ECPInt.
 ECPInt:  NShTT=     666 NPrTT=    1503 LenC2=     667 LenP2D=    1470.
 LDataN:  DoStor=F MaxTD1= 3 Len=   28
 LDataN:  DoStor=T MaxTD1= 3 Len=   28
 NBasis=    72 RedAO= T  NBF=    72
 NBsUse=    72 1.00D-06 NBFU=    72
 Harris functional with IExCor=  402 diagonalized for initial guess.
 ExpMin= 8.85D-02 ExpMax= 2.58D+00 ExpMxC= 2.58D+00 IAcc=2 IRadAn=         4 AccDes= 0.00D+00
 HarFok:  IExCor= 402 AccDes= 0.00D+00 IRadAn=         4 IDoV=1
 ScaDFX=  1.000000  1.000000  1.000000  1.000000
 <S**2> of initial guess= 0.7500
 Requested convergence on RMS density matrix=1.00D-08 within 128 cycles.
 Requested convergence on MAX density matrix=1.00D-06.
 Requested convergence on             energy=1.00D-06.
 No special actions if energy rises.
 Keep R1 and R2 integrals in memory in canonical form, NReq=     8709372.
 Integral accuracy reduced to 1.0D-05 until final iterations.
 EnCoef did     5 forward-backward iterations
 Initial convergence to 1.0D-05 achieved.  Increase integral accuracy.
 SCF Done:  E(UB+HF-LYP) =  -34.8106282116     A.U. after   23 cycles
             Convg  =    0.8220D-08             -V/T =  3.5293
             S**2   =   0.7564
 Annihilation of the first spin contaminant:
 S**2 before annihilation     0.7564,   after     0.7500
 QCSCF skips out because SCF is already converged.
 Range of M.O.s used for correlation:     1    72
 NBasis=    72 NAE=    19 NBE=    18 NFC=     0 NFV=     0
 NROrb=     72 NOA=    19 NOB=    18 NVA=    53 NVB=    54

 **** Warning!!: The smallest alpha delta epsilon is  0.92661091D-01


 **** Warning!!: The smallest beta delta epsilon is  0.69436088D-01

   1 Symmetry operations used in ECPInt.
 ECPInt:  NShTT=     666 NPrTT=    1503 LenC2=     667 LenP2D=    1470.
 LDataN:  DoStor=F MaxTD1= 4 Len=   56
 LDataN:  DoStor=T MaxTD1= 4 Len=   56
 Symmetrizing basis deriv contribution to polar:
 IMax=3 JMax=2 DiffMx= 0.00D+00
 G2DrvN: will do   10 centers at a time, making    1 passes doing MaxLOS=1.
 FoFDir/FoFCou used for L=0 through L=1.
 DoAtom=TTTTTTTTT
          Differentiating once with respect to electric field.
                with respect to dipole field.
          Differentiating once with respect to nuclear coordinates.
          Store integrals in memory, NReq=     7711531.
          There are  30 degrees of freedom in the 1st order CPHF.
    27 vectors were produced by pass  0.
 AX will form  27 AO Fock derivatives at one time.
    27 vectors were produced by pass  1.
    27 vectors were produced by pass  2.
    27 vectors were produced by pass  3.
    27 vectors were produced by pass  4.
    27 vectors were produced by pass  5.
    27 vectors were produced by pass  6.
    25 vectors were produced by pass  7.
     7 vectors were produced by pass  8.
     3 vectors were produced by pass  9.
 Inv2:  IOpt= 1 Iter= 1 AM= 2.25D-15 Conv= 1.00D-12.
 Inverted reduced A of dimension  224 with in-core refinement.
 Isotropic polarizability for W=    0.000000      276.05 Bohr**3.
 End of Minotr Frequency-dependent properties file   721 does not exist.

 **********************************************************************

            Population analysis using the SCF density.

 **********************************************************************

 Alpha  occ. eigenvalues --   -0.57440  -0.46383  -0.44970  -0.41846  -0.31336
 Alpha  occ. eigenvalues --   -0.29974  -0.28319  -0.26551  -0.22276  -0.19534
 Alpha  occ. eigenvalues --   -0.14579  -0.13657  -0.12674  -0.11811  -0.11206
 Alpha  occ. eigenvalues --   -0.11144  -0.09878  -0.08719  -0.07011
 Alpha virt. eigenvalues --    0.02255   0.03579   0.04722   0.06480   0.07406
 Alpha virt. eigenvalues --    0.09102   0.09754   0.11024   0.13269   0.14368
 Alpha virt. eigenvalues --    0.15534   0.16006   0.16840   0.17484   0.19370
 Alpha virt. eigenvalues --    0.21139   0.23677   0.40518   0.40875   0.41523
 Alpha virt. eigenvalues --    0.41970   0.42789   0.42944   0.43325   0.43735
 Alpha virt. eigenvalues --    0.44090   0.44528   0.45662   0.46063   0.47150
 Alpha virt. eigenvalues --    0.48244   0.49285   0.49964   0.50533   0.51004
 Alpha virt. eigenvalues --    0.52428   0.53319   0.54149   0.54396   0.54747
 Alpha virt. eigenvalues --    0.55281   0.57977   0.58819   0.60508   8.12208
 Alpha virt. eigenvalues --   10.42545  11.11020  11.32875  11.65819  12.17632
 Alpha virt. eigenvalues --   12.67630  13.02629  13.81507
  Beta  occ. eigenvalues --   -0.57191  -0.46002  -0.44446  -0.41370  -0.30723
  Beta  occ. eigenvalues --   -0.29579  -0.27756  -0.25927  -0.21815  -0.18910
  Beta  occ. eigenvalues --   -0.13943  -0.13243  -0.12262  -0.11328  -0.10982
  Beta  occ. eigenvalues --   -0.10622  -0.09575  -0.08307
  Beta virt. eigenvalues --   -0.01364   0.02601   0.03808   0.05293   0.06659
  Beta virt. eigenvalues --    0.07634   0.09360   0.10070   0.11623   0.13988
  Beta virt. eigenvalues --    0.14566   0.15941   0.16359   0.17053   0.17611
  Beta virt. eigenvalues --    0.20000   0.21541   0.24076   0.40860   0.41233
  Beta virt. eigenvalues --    0.41694   0.42227   0.42971   0.43041   0.43517
  Beta virt. eigenvalues --    0.43934   0.44266   0.44726   0.45904   0.46550
  Beta virt. eigenvalues --    0.47465   0.48525   0.49575   0.50294   0.50811
  Beta virt. eigenvalues --    0.51169   0.52886   0.53622   0.54351   0.54705
  Beta virt. eigenvalues --    0.54950   0.55619   0.58235   0.59163   0.60706
  Beta virt. eigenvalues --    8.12300  10.42562  11.11032  11.32878  11.65807
  Beta virt. eigenvalues --   12.17672  12.67605  13.02615  13.81440
          Condensed to atoms (all electrons):
              1          2          3          4          5          6
     1  Si   3.864872  -0.022471   0.153723  -0.033715   0.057790  -0.072876
     2  Si  -0.022471   3.863878  -0.036102   0.083584   0.126443   0.124692
     3  Si   0.153723  -0.036102   4.171860  -0.108994  -0.106318  -0.073553
     4  Si  -0.033715   0.083584  -0.108994   4.219606  -0.120287  -0.082770
     5  Si   0.057790   0.126443  -0.106318  -0.120287   4.273370  -0.101553
     6  Si  -0.072876   0.124692  -0.073553  -0.082770  -0.101553   4.207010
     7  Si  -0.028947  -0.054958   0.167811   0.144798  -0.029790   0.118137
     8  Si  -0.054950  -0.048652   0.167628   0.138089   0.113237  -0.026895
     9  Si   0.177403  -0.027399  -0.081788  -0.032793   0.059641   0.150092
              7          8          9
     1  Si  -0.028947  -0.054950   0.177403
     2  Si  -0.054958  -0.048652  -0.027399
     3  Si   0.167811   0.167628  -0.081788
     4  Si   0.144798   0.138089  -0.032793
     5  Si  -0.029790   0.113237   0.059641
     6  Si   0.118137  -0.026895   0.150092
     7  Si   3.731698  -0.055564  -0.017713
     8  Si  -0.055564   3.736563  -0.003488
     9  Si  -0.017713  -0.003488   3.808159
 Mulliken atomic charges:
              1
     1  Si  -0.040829
     2  Si  -0.009016
     3  Si  -0.254267
     4  Si  -0.207518
     5  Si  -0.272532
     6  Si  -0.242284
     7  Si   0.024528
     8  Si   0.034032
     9  Si  -0.032115
 Sum of Mulliken charges=  -1.00000
 Atomic charges with hydrogens summed into heavy atoms:
              1
     1  Si  -0.040829
     2  Si  -0.009016
     3  Si  -0.254267
     4  Si  -0.207518
     5  Si  -0.272532
     6  Si  -0.242284
     7  Si   0.024528
     8  Si   0.034032
     9  Si  -0.032115
 Sum of Mulliken charges=  -1.00000
          Atomic-Atomic Spin Densities.
              1          2          3          4          5          6
     1  Si   0.566144   0.002054  -0.005253  -0.001175   0.003139  -0.049289
     2  Si   0.002054   0.037790   0.003273   0.025900  -0.046395   0.008502
     3  Si  -0.005253   0.003273   0.071097   0.013535  -0.006137  -0.015543
     4  Si  -0.001175   0.025900   0.013535   0.039903  -0.038216  -0.002316
     5  Si   0.003139  -0.046395  -0.006137  -0.038216   0.118206   0.006642
     6  Si  -0.049289   0.008502  -0.015543  -0.002316   0.006642   0.228856
     7  Si  -0.016501   0.000457  -0.021429  -0.004016   0.000881   0.008627
     8  Si   0.005470  -0.007810  -0.006534  -0.016180   0.024796  -0.001673
     9  Si   0.028172  -0.001541   0.001288   0.002223  -0.010366  -0.011984
              7          8          9
     1  Si  -0.016501   0.005470   0.028172
     2  Si   0.000457  -0.007810  -0.001541
     3  Si  -0.021429  -0.006534   0.001288
     4  Si  -0.004016  -0.016180   0.002223
     5  Si   0.000881   0.024796  -0.010366
     6  Si   0.008627  -0.001673  -0.011984
     7  Si   0.087151  -0.002234  -0.000521
     8  Si  -0.002234   0.026122   0.001459
     9  Si  -0.000521   0.001459   0.082121
 Mulliken atomic spin densities:
              1
     1  Si   0.532761
     2  Si   0.022231
     3  Si   0.034296
     4  Si   0.019658
     5  Si   0.052550
     6  Si   0.171822
     7  Si   0.052415
     8  Si   0.023415
     9  Si   0.090852
 Sum of Mulliken spin densities=   1.00000
 APT atomic charges:
              1
     1  Si  -0.132162
     2  Si  -0.069011
     3  Si  -0.178281
     4  Si  -0.183016
     5  Si  -0.211408
     6  Si  -0.210153
     7  Si  -0.021975
     8  Si  -0.031872
     9  Si   0.037878
 Sum of APT charges=  -1.00000
 APT Atomic charges with hydrogens summed into heavy atoms:
              1
     1  Si  -0.132162
     2  Si  -0.069011
     3  Si  -0.178281
     4  Si  -0.183016
     5  Si  -0.211408
     6  Si  -0.210153
     7  Si  -0.021975
     8  Si  -0.031872
     9  Si   0.037878
 Sum of APT charges=  -1.00000
 Electronic spatial extent (au):  <R**2>=   921.8746
 Charge=    -1.0000 electrons
 Dipole moment (field-independent basis, Debye):
    X=     0.2369    Y=     0.1610    Z=    -0.4262  Tot=     0.5135
 Quadrupole moment (field-independent basis, Debye-Ang):
   XX=  -138.6024   YY=  -133.9003   ZZ=  -130.3287
   XY=    -0.0091   XZ=     2.3320   YZ=     0.1769
 Traceless Quadrupole moment (field-independent basis, Debye-Ang):
   XX=    -4.3253   YY=     0.3769   ZZ=     3.9484
   XY=    -0.0091   XZ=     2.3320   YZ=     0.1769
 Octapole moment (field-independent basis, Debye-Ang**2):
  XXX=   -12.9785  YYY=   -10.3461  ZZZ=     1.6845  XYY=    -8.6409
  XXY=     4.5882  XXZ=    11.1155  XZZ=   -15.5452  YZZ=     0.8681
  YYZ=     4.0731  XYZ=   -16.0791
 Hexadecapole moment (field-independent basis, Debye-Ang**3):
 XXXX= -1739.9517 YYYY= -1482.4203 ZZZZ= -1182.8546 XXXY=    17.0248
 XXXZ=   -22.4838 YYYX=     9.5567 YYYZ=    12.5304 ZZZX=   -23.6686
 ZZZY=   -13.4399 XXYY=  -546.4418 XXZZ=  -507.1468 YYZZ=  -484.6280
 XXYZ=   -10.8305 YYXZ=    -8.6471 ZZXY=     1.4500
 N-N= 1.008297801185D+02 E-N=-2.701386889265D+02  KE= 1.376295594611D+01
  Exact polarizability: 292.703   1.530 280.490   6.186   2.292 254.943
 Approx polarizability: 944.046  25.370 954.448  21.615  29.428 821.235
                          Isotropic Fermi Contact Couplings
        Atom                 a.u.       MegaHertz       Gauss      10(-4) cm-1
     1  Si(29)             0.00000      -0.00024      -0.00009      -0.00008
     2  Si(29)             0.00000       0.00004       0.00001       0.00001
     3  Si(29)             0.00000      -0.00025      -0.00009      -0.00008
     4  Si(29)             0.00000       0.00004       0.00001       0.00001
     5  Si(29)             0.00000      -0.00026      -0.00009      -0.00009
     6  Si(29)             0.00000       0.00007       0.00002       0.00002
     7  Si(29)             0.00000      -0.00001       0.00000       0.00000
     8  Si(29)             0.00000      -0.00002      -0.00001      -0.00001
     9  Si(29)             0.00000      -0.00021      -0.00007      -0.00007
 --------------------------------------------------------
       Center         ----  Spin Dipole Couplings  ----
                      3XX-RR        3YY-RR        3ZZ-RR
 --------------------------------------------------------
     1   Atom       -0.029190      0.036526     -0.007335
     2   Atom       -0.003252     -0.003025      0.006278
     3   Atom        0.001262      0.000420     -0.001682
     4   Atom        0.004285     -0.003189     -0.001096
     5   Atom       -0.006409     -0.003401      0.009810
     6   Atom       -0.009813      0.017427     -0.007614
     7   Atom        0.000090      0.002752     -0.002842
     8   Atom        0.001017      0.001175     -0.002192
     9   Atom       -0.005786      0.017796     -0.012010
 --------------------------------------------------------
                        XY            XZ            YZ
 --------------------------------------------------------
     1   Atom        0.003098      0.000648      0.038549
     2   Atom        0.002189      0.002621      0.003313
     3   Atom       -0.002353      0.001278     -0.004242
     4   Atom       -0.000063     -0.001595      0.000023
     5   Atom        0.001049      0.000893     -0.005713
     6   Atom       -0.004432      0.000651     -0.011599
     7   Atom       -0.004838      0.001831     -0.005407
     8   Atom        0.002482      0.001726     -0.002634
     9   Atom        0.011310     -0.003212     -0.007122
 --------------------------------------------------------


 ---------------------------------------------------------------------------------
              Anisotropic Spin Dipole Couplings in Principal Axis System
 ---------------------------------------------------------------------------------

       Atom             a.u.   MegaHertz   Gauss  10(-4) cm-1        Axes

              Baa    -0.0305     3.241     1.156     1.081  0.6216 -0.4117  0.6664
     1 Si(29) Bbb    -0.0285     3.023     1.079     1.009  0.7826  0.2894 -0.5511
              Bcc     0.0590    -6.264    -2.235    -2.089  0.0340  0.8641  0.5021
 
              Baa    -0.0053     0.568     0.203     0.189 -0.6907  0.7214 -0.0498
     2 Si(29) Bbb    -0.0029     0.304     0.109     0.102  0.6714  0.6141 -0.4148
              Bcc     0.0082    -0.872    -0.311    -0.291  0.2686  0.3199  0.9086
 
              Baa    -0.0050     0.534     0.191     0.178  0.0804  0.6331  0.7699
     3 Si(29) Bbb    -0.0004     0.041     0.015     0.014  0.8395  0.3735 -0.3947
              Bcc     0.0054    -0.575    -0.205    -0.192 -0.5374  0.6780 -0.5014
 
              Baa    -0.0032     0.338     0.121     0.113  0.0073  1.0000 -0.0053
     4 Si(29) Bbb    -0.0015     0.163     0.058     0.054  0.2645  0.0032  0.9644
              Bcc     0.0047    -0.501    -0.179    -0.167  0.9644 -0.0084 -0.2644
 
              Baa    -0.0073     0.779     0.278     0.260  0.8140 -0.5371 -0.2213
     5 Si(29) Bbb    -0.0046     0.489     0.174     0.163  0.5803  0.7688  0.2687
              Bcc     0.0119    -1.268    -0.452    -0.423  0.0258 -0.3471  0.9375
 
              Baa    -0.0126     1.338     0.478     0.446  0.4092  0.3806  0.8293
     6 Si(29) Bbb    -0.0099     1.055     0.377     0.352  0.9026 -0.0356 -0.4290
              Bcc     0.0226    -2.394    -0.854    -0.798 -0.1337  0.9241 -0.3581
 
              Baa    -0.0063     0.673     0.240     0.224  0.2131  0.5806  0.7858
     7 Si(29) Bbb    -0.0026     0.279     0.100     0.093  0.8400  0.3020 -0.4509
              Bcc     0.0090    -0.952    -0.340    -0.318 -0.4991  0.7561 -0.4234
 
              Baa    -0.0049     0.522     0.186     0.174 -0.4279  0.4997  0.7531
     8 Si(29) Bbb     0.0012    -0.130    -0.046    -0.043  0.6676 -0.3870  0.6360
              Bcc     0.0037    -0.392    -0.140    -0.131  0.6093  0.7749 -0.1681
 
              Baa    -0.0137     1.457     0.520     0.486  0.1646  0.1608  0.9732
     9 Si(29) Bbb    -0.0103     1.093     0.390     0.365  0.9158 -0.3915 -0.0902
              Bcc     0.0240    -2.550    -0.910    -0.850  0.3664  0.9060 -0.2117
 

 ---------------------------------------------------------------------------------

   1 Symmetry operations used in ECPInt.
 ECPInt:  NShTT=     666 NPrTT=    1503 LenC2=     667 LenP2D=    1503.
 LDataN:  DoStor=F MaxTD1= 5 Len=  102
 LDataN:  DoStor=T MaxTD1= 5 Len=  102
 -------------------------------------------------------------------
 Center     Atomic                   Forces (Hartrees/Bohr)
 Number     Number              X              Y              Z
 -------------------------------------------------------------------
    1         14           0.003419559    0.013482515   -0.011029654
    2         14          -0.009958392   -0.010209181    0.019619294
    3         14           0.017033583    0.024645010   -0.020433859
    4         14           0.021404826   -0.016327504    0.017147138
    5         14          -0.021821315    0.009078087    0.022173753
    6         14          -0.009091191   -0.018531666   -0.019804247
    7         14           0.012498630   -0.005108246   -0.008624438
    8         14           0.009598795    0.004775430    0.009477255
    9         14          -0.023084495   -0.001804445   -0.008525241
 -------------------------------------------------------------------
 Cartesian Forces:  Max     0.024645010 RMS     0.015124296

 GradGradGradGradGradGradGradGradGradGradGradGradGradGradGradGradGradGrad
 Berny optimization.
 Internal  Forces:  Max     0.015351797 RMS     0.005091487
 Search for a local minimum.
 Step number   1 out of a maximum of 100
 All quantities printed in internal units (Hartrees-Bohrs-Radians)
 Second derivative matrix not updated -- analytic derivatives used.
     Eigenvalues ---    0.00610   0.01087   0.01365   0.01949   0.02438
     Eigenvalues ---    0.02778   0.02794   0.02873   0.03325   0.03780
     Eigenvalues ---    0.04137   0.04593   0.05176   0.05646   0.05960
     Eigenvalues ---    0.06588   0.07000   0.07088   0.07310   0.07772
     Eigenvalues ---    0.081681000.000001000.000001000.000001000.00000
     Eigenvalues --- 1000.000001000.000001000.000001000.000001000.00000
     Eigenvalues --- 1000.000001000.000001000.000001000.000001000.00000
     Eigenvalues --- 1000.000001000.000001000.000001000.000001000.00000
     Eigenvalues --- 1000.000001000.000001000.000001000.000001000.00000
     Eigenvalues --- 1000.000001000.000001000.000001000.000001000.00000
     Eigenvalues --- 1000.000001000.000001000.000001000.000001000.00000
     Eigenvalues --- 1000.000001000.000001000.000001000.000001000.00000
     Eigenvalues --- 1000.000001000.000001000.000001000.000001000.00000
     Eigenvalues --- 1000.000001000.000001000.000001000.000001000.00000
     Eigenvalues --- 1000.000001000.000001000.000001000.000001000.00000
     Eigenvalues --- 1000.000001000.000001000.000001000.000001000.00000
     Eigenvalues --- 1000.000001000.000001000.000001000.000001000.00000
 RFO step:  Lambda=-2.78717880D-02.
 Linear search not attempted -- first point.
 Maximum step size (   0.300) exceeded in Quadratic search.
    -- Step size scaled by   0.482
 Iteration  1 RMS(Cart)=  0.02027915 RMS(Int)=  0.00026237
 Iteration  2 RMS(Cart)=  0.00018029 RMS(Int)=  0.00011393
 Iteration  3 RMS(Cart)=  0.00000003 RMS(Int)=  0.00011393
 Variable       Old X    -DE/DX   Delta X   Delta X   Delta X     New X
                                 (Linear)    (Quad)   (Total)
    R1        4.58515   0.00493   0.00000   0.02112   0.02111   4.60626
    R2        4.73948   0.00913   0.00000   0.06236   0.06230   4.80178
    R3        4.48107   0.01254   0.00000   0.05093   0.05099   4.53206
    R4        4.57204   0.00883   0.00000   0.04336   0.04333   4.61537
    R5        4.72586   0.00822   0.00000   0.03531   0.03523   4.76109
    R6        4.53442   0.01488   0.00000   0.07266   0.07280   4.60722
    R7        5.02058   0.01535   0.00000   0.11004   0.11012   5.13070
    R8        5.54576   0.01335   0.00000   0.11764   0.11767   5.66343
    R9        4.46699   0.00891   0.00000   0.04364   0.04371   4.51070
   R10        4.49173   0.00623   0.00000   0.03681   0.03694   4.52868
   R11        5.16332   0.01074   0.00000   0.10039   0.10043   5.26375
   R12        5.19748   0.01127   0.00000   0.08464   0.08451   5.28199
   R13        4.58154   0.00539   0.00000   0.02850   0.02833   4.60987
   R14        4.53024   0.00361   0.00000   0.02255   0.02238   4.55262
   R15        4.58855   0.00959   0.00000   0.05266   0.05265   4.64120
   R16        4.83835   0.01147   0.00000   0.06408   0.06410   4.90245
   R17        4.50872   0.01112   0.00000   0.06036   0.06046   4.56918
   R18        4.48407   0.01319   0.00000   0.05803   0.05803   4.54209
    A1        1.79271   0.00282   0.00000   0.02401   0.02401   1.81672
    A2        1.40370   0.00009   0.00000   0.00780   0.00769   1.41139
    A3        1.91563  -0.00124   0.00000  -0.00966  -0.00980   1.90583
    A4        2.17063  -0.00248   0.00000  -0.02380  -0.02405   2.14658
    A5        1.67026   0.00166   0.00000   0.00470   0.00440   1.67467
    A6        1.82524  -0.00238   0.00000  -0.01870  -0.01865   1.80659
    A7        1.93106  -0.00317   0.00000  -0.01890  -0.01897   1.91209
    A8        1.90059   0.00202   0.00000   0.00510   0.00495   1.90554
    A9        1.87916   0.00267   0.00000   0.00818   0.00797   1.88714
   A10        1.94663  -0.00056   0.00000  -0.01422  -0.01421   1.93241
   A11        1.19527   0.00274   0.00000   0.01273   0.01273   1.20800
   A12        1.23064   0.00057   0.00000  -0.00241  -0.00236   1.22828
   A13        1.90524  -0.00095   0.00000  -0.01146  -0.01156   1.89368
   A14        1.97917   0.00188   0.00000  -0.00097  -0.00100   1.97817
   A15        1.88331  -0.00108   0.00000  -0.00870  -0.00881   1.87450
   A16        2.09152   0.00206   0.00000   0.00193   0.00178   2.09330
   A17        1.83267  -0.00081   0.00000  -0.01582  -0.01570   1.81697
   A18        1.61155  -0.00006   0.00000  -0.00803  -0.00812   1.60343
   A19        1.72186   0.00267   0.00000   0.00627   0.00614   1.72800
   A20        1.88110  -0.00201   0.00000  -0.01925  -0.01914   1.86196
   A21        1.27615   0.00186   0.00000   0.01262   0.01253   1.28868
   A22        1.49587   0.00123   0.00000  -0.00055  -0.00054   1.49533
   A23        1.78949   0.00022   0.00000  -0.00317  -0.00324   1.78625
   A24        2.39525   0.00017   0.00000  -0.01181  -0.01182   2.38343
   A25        1.91296  -0.00099   0.00000  -0.01098  -0.01108   1.90189
   A26        1.36764   0.00034   0.00000   0.00726   0.00715   1.37479
   A27        1.87112  -0.00055   0.00000   0.00120   0.00111   1.87222
   A28        2.37425  -0.00412   0.00000  -0.02624  -0.02624   2.34801
   A29        1.39100   0.00394   0.00000   0.02786   0.02794   1.41894
   A30        1.60641  -0.00003   0.00000  -0.00013  -0.00005   1.60637
   A31        1.39123  -0.00017   0.00000   0.00509   0.00503   1.39625
    D1       -0.63091   0.00205   0.00000   0.01364   0.01353  -0.61738
    D2        0.47535  -0.00081   0.00000  -0.00844  -0.00816   0.46719
    D3       -1.61610   0.00321   0.00000   0.02449   0.02448  -1.59162
    D4       -0.24092   0.00004   0.00000   0.00024   0.00025  -0.24067
    D5        0.27926  -0.00192   0.00000  -0.02804  -0.02794   0.25132
    D6       -0.61405  -0.00159   0.00000  -0.01442  -0.01450  -0.62855
    D7       -1.52694  -0.00147   0.00000  -0.00613  -0.00605  -1.53299
    D8        0.83109  -0.00079   0.00000  -0.01462  -0.01460   0.81649
    D9        1.46307  -0.00335   0.00000  -0.01317  -0.01301   1.45006
   D10       -0.89258   0.00099   0.00000   0.01329   0.01340  -0.87918
   D11        0.34981  -0.00430   0.00000  -0.02919  -0.02917   0.32063
   D12        1.01157  -0.00166   0.00000  -0.01777  -0.01771   0.99386
   D13       -0.01372   0.00230   0.00000   0.01788   0.01794   0.00422
   D14       -1.27352   0.00052   0.00000   0.00592   0.00605  -1.26747
   D15       -0.35921   0.00019   0.00000   0.00503   0.00474  -0.35447
   D16        0.63670  -0.00116   0.00000  -0.00830  -0.00824   0.62846
   D17        1.60807  -0.00207   0.00000  -0.02194  -0.02160   1.58648
   D18       -0.97897  -0.00184   0.00000  -0.00860  -0.00858  -0.98755
   D19        0.02511  -0.00117   0.00000  -0.01265  -0.01260   0.01250
   D20       -0.29581   0.00064   0.00000   0.00133   0.00136  -0.29444
   D21        0.70826   0.00131   0.00000  -0.00272  -0.00266   0.70561
   D22       -1.26772   0.00234   0.00000   0.01539   0.01547  -1.25225
   D23       -0.02768   0.00132   0.00000   0.01391   0.01388  -0.01380
   D24       -0.67339   0.00203   0.00000   0.02056   0.02055  -0.65283
   D25       -0.84594   0.00038   0.00000   0.01114   0.01126  -0.83468
   D26        0.90634   0.00255   0.00000   0.01626   0.01623   0.92257
   D27       -0.02788   0.00132   0.00000   0.01400   0.01398  -0.01391
   D28        0.86715  -0.00067   0.00000  -0.00233  -0.00208   0.86507
   D29       -1.46535   0.00280   0.00000   0.01522   0.01510  -1.45025
   D30        0.16624   0.00053   0.00000   0.00345   0.00360   0.16984
   D31        1.91442  -0.00241   0.00000  -0.01731  -0.01728   1.89714
   D32        0.86679  -0.00163   0.00000  -0.01895  -0.01885   0.84794
   D33        1.07594  -0.00213   0.00000  -0.01245  -0.01256   1.06338
   D34        0.02831  -0.00135   0.00000  -0.01409  -0.01413   0.01418
   D35        0.05995  -0.00097   0.00000  -0.00656  -0.00656   0.05339
   D36       -0.98768  -0.00019   0.00000  -0.00820  -0.00813  -0.99581
         Item               Value     Threshold  Converged?
 Maximum Force            0.015352     0.000450     NO 
 RMS     Force            0.005091     0.000300     NO 
 Maximum Displacement     0.072304     0.001800     NO 
 RMS     Displacement     0.020314     0.001200     NO 
 Predicted change in Energy=-1.145236D-02
 GradGradGradGradGradGradGradGradGradGradGradGradGradGradGradGradGradGrad

                          Input orientation:                          
 ---------------------------------------------------------------------
 Center     Atomic     Atomic              Coordinates (Angstroms)
 Number     Number      Type              X           Y           Z
 ---------------------------------------------------------------------
    1         14             0       -0.860880    1.966661   -1.138088
    2         14             0       -0.987284   -1.671306    1.299811
    3         14             0        1.381019    1.050281   -0.862993
    4         14             0        1.317507   -0.918842    1.005161
    5         14             0       -0.839383    0.838647    1.138701
    6         14             0       -0.469143   -1.465717   -1.073644
    7         14             0        1.922210   -1.225438   -1.338169
    8         14             0        1.516799    1.430662    1.499199
    9         14             0       -2.304349    0.071700   -0.860267
 ---------------------------------------------------------------------
                    Distance matrix (angstroms):
                    1          2          3          4          5
     1  Si   0.000000
     2  Si   4.381110   0.000000
     3  Si   2.437527   4.206378   0.000000
     4  Si   4.202977   2.442351   2.715047   0.000000
     5  Si   2.540992   2.519463   2.996957   2.785457   0.000000
     6  Si   3.455261   2.438037   3.130131   2.795106   3.215842
     7  Si   4.239707   3.952580   2.386960   2.439439   4.245200
     8  Si   3.591091   3.991540   2.396472   2.409141   2.456020
     9  Si   2.398262   3.072241   3.813078   4.192712   2.594264
                    6          7          8          9
     6  Si   0.000000
     7  Si   2.417907   0.000000
     8  Si   4.353447   3.907670   0.000000
     9  Si   2.403572   4.446881   4.692018   0.000000
 Symmetry turned off by external request.
 Stoichiometry    Si9(1-,2)
 Framework group  C1[X(Si9)]
 Deg. of freedom    21
 Full point group                 C1
 Rotational constants (GHZ):      0.6751907      0.6122674      0.5514809
 Standard basis: LANL2DZ (5D, 7F)
 Integral buffers will be    131072 words long.
 Raffenetti 2 integral format.
 Two-electron integral symmetry is turned off.
    72 basis functions,   108 primitive gaussians,    72 cartesian basis functions
    19 alpha electrons       18 beta electrons
       nuclear repulsion energy        99.6259089065 Hartrees.
 NAtoms=    9 NActive=    9 NUniq=    9 SFac= 7.50D-01 NAtFMM=   80 NAOKFM=F Big=F
 One-electron integrals computed using PRISM.
   1 Symmetry operations used in ECPInt.
 ECPInt:  NShTT=     666 NPrTT=    1503 LenC2=     667 LenP2D=    1470.
 LDataN:  DoStor=F MaxTD1= 3 Len=   28
 LDataN:  DoStor=T MaxTD1= 3 Len=   28
 NBasis=    72 RedAO= T  NBF=    72
 NBsUse=    72 1.00D-06 NBFU=    72
 Initial guess read from the read-write file:
 <S**2> of initial guess= 0.7566
 Harris functional with IExCor=  402 diagonalized for initial guess.
 ExpMin= 8.85D-02 ExpMax= 2.58D+00 ExpMxC= 2.58D+00 IAcc=2 IRadAn=         4 AccDes= 0.00D+00
 HarFok:  IExCor= 402 AccDes= 0.00D+00 IRadAn=         4 IDoV=1
 ScaDFX=  1.000000  1.000000  1.000000  1.000000
 Requested convergence on RMS density matrix=1.00D-08 within 128 cycles.
 Requested convergence on MAX density matrix=1.00D-06.
 Requested convergence on             energy=1.00D-06.
 No special actions if energy rises.
 Keep R1 and R2 integrals in memory in canonical form, NReq=     8709372.
 Integral accuracy reduced to 1.0D-05 until final iterations.
 Initial convergence to 1.0D-05 achieved.  Increase integral accuracy.
 SCF Done:  E(UB+HF-LYP) =  -34.8221442921     A.U. after   21 cycles
             Convg  =    0.7745D-08             -V/T =  3.5559
             S**2   =   0.7566
 Annihilation of the first spin contaminant:
 S**2 before annihilation     0.7566,   after     0.7500
 QCSCF skips out because SCF is already converged.
 Range of M.O.s used for correlation:     1    72
 NBasis=    72 NAE=    19 NBE=    18 NFC=     0 NFV=     0
 NROrb=     72 NOA=    19 NOB=    18 NVA=    53 NVB=    54

 **** Warning!!: The smallest alpha delta epsilon is  0.90737176D-01


 **** Warning!!: The smallest beta delta epsilon is  0.70258835D-01

   1 Symmetry operations used in ECPInt.
 ECPInt:  NShTT=     666 NPrTT=    1503 LenC2=     667 LenP2D=    1470.
 LDataN:  DoStor=F MaxTD1= 4 Len=   56
 LDataN:  DoStor=T MaxTD1= 4 Len=   56
 Symmetrizing basis deriv contribution to polar:
 IMax=3 JMax=2 DiffMx= 0.00D+00
 G2DrvN: will do   10 centers at a time, making    1 passes doing MaxLOS=1.
 FoFDir/FoFCou used for L=0 through L=1.
 DoAtom=TTTTTTTTT
          Differentiating once with respect to electric field.
                with respect to dipole field.
          Differentiating once with respect to nuclear coordinates.
          Store integrals in memory, NReq=     7711545.
          There are  30 degrees of freedom in the 1st order CPHF.
    27 vectors were produced by pass  0.
 AX will form  27 AO Fock derivatives at one time.
    27 vectors were produced by pass  1.
    27 vectors were produced by pass  2.
    27 vectors were produced by pass  3.
    27 vectors were produced by pass  4.
    27 vectors were produced by pass  5.
    27 vectors were produced by pass  6.
    25 vectors were produced by pass  7.
     8 vectors were produced by pass  8.
     3 vectors were produced by pass  9.
 Inv2:  IOpt= 1 Iter= 1 AM= 2.24D-15 Conv= 1.00D-12.
 Inverted reduced A of dimension  225 with in-core refinement.
 Isotropic polarizability for W=    0.000000      280.35 Bohr**3.
 End of Minotr Frequency-dependent properties file   721 does not exist.
   1 Symmetry operations used in ECPInt.
 ECPInt:  NShTT=     666 NPrTT=    1503 LenC2=     667 LenP2D=    1503.
 LDataN:  DoStor=F MaxTD1= 5 Len=  102
 LDataN:  DoStor=T MaxTD1= 5 Len=  102
 -------------------------------------------------------------------
 Center     Atomic                   Forces (Hartrees/Bohr)
 Number     Number              X              Y              Z
 -------------------------------------------------------------------
    1         14           0.002545404    0.008590444   -0.007870162
    2         14          -0.006026993   -0.006403447    0.013326843
    3         14           0.012784838    0.017908217   -0.015308141
    4         14           0.016319451   -0.012589641    0.012385239
    5         14          -0.017662370    0.006310964    0.016933951
    6         14          -0.007578931   -0.012988828   -0.013463468
    7         14           0.008173381   -0.003323135   -0.005956631
    8         14           0.006376424    0.003181565    0.006456472
    9         14          -0.014931204   -0.000686138   -0.006504104
 -------------------------------------------------------------------
 Cartesian Forces:  Max     0.017908217 RMS     0.010905882

 GradGradGradGradGradGradGradGradGradGradGradGradGradGradGradGradGradGrad
 Berny optimization.
 Internal  Forces:  Max     0.011263956 RMS     0.003588817
 Search for a local minimum.
 Step number   2 out of a maximum of 100
 All quantities printed in internal units (Hartrees-Bohrs-Radians)
 Second derivative matrix not updated -- analytic derivatives used.
 Trust test= 1.01D+00 RLast= 3.00D-01 DXMaxT set to 4.24D-01
 Maximum step size (   0.424) exceeded in linear search.
    -- Step size scaled by   0.707
 Quintic linear search produced a step of  1.41424.
 Iteration  1 RMS(Cart)=  0.02865612 RMS(Int)=  0.00060115
 Iteration  2 RMS(Cart)=  0.00036161 RMS(Int)=  0.00038168
 Iteration  3 RMS(Cart)=  0.00000014 RMS(Int)=  0.00038168
 Variable       Old X    -DE/DX   Delta X   Delta X   Delta X     New X
                                 (Linear)    (Quad)   (Total)
    R1        4.60626   0.00320   0.02985   0.00000   0.02983   4.63609
    R2        4.80178   0.00660   0.08811   0.00000   0.08791   4.88969
    R3        4.53206   0.00815   0.07211   0.00000   0.07232   4.60437
    R4        4.61537   0.00591   0.06128   0.00000   0.06120   4.67658
    R5        4.76109   0.00534   0.04983   0.00000   0.04959   4.81069
    R6        4.60722   0.01008   0.10296   0.00000   0.10342   4.71064
    R7        5.13070   0.01126   0.15573   0.00000   0.15596   5.28666
    R8        5.66343   0.01030   0.16642   0.00000   0.16647   5.82990
    R9        4.51070   0.00601   0.06182   0.00000   0.06203   4.57273
   R10        4.52868   0.00439   0.05224   0.00000   0.05268   4.58136
   R11        5.26375   0.00846   0.14203   0.00000   0.14215   5.40590
   R12        5.28199   0.00830   0.11952   0.00000   0.11907   5.40105
   R13        4.60987   0.00364   0.04007   0.00000   0.03954   4.64941
   R14        4.55262   0.00252   0.03165   0.00000   0.03111   4.58372
   R15        4.64120   0.00661   0.07446   0.00000   0.07445   4.71566
   R16        4.90245   0.00792   0.09065   0.00000   0.09069   4.99314
   R17        4.56918   0.00768   0.08550   0.00000   0.08583   4.65501
   R18        4.54209   0.00869   0.08206   0.00000   0.08205   4.62415
    A1        1.81672   0.00214   0.03396   0.00000   0.03395   1.85067
    A2        1.41139   0.00022   0.01087   0.00000   0.01048   1.42186
    A3        1.90583  -0.00093  -0.01387   0.00000  -0.01433   1.89149
    A4        2.14658  -0.00199  -0.03401   0.00000  -0.03481   2.11177
    A5        1.67467   0.00098   0.00622   0.00000   0.00520   1.67987
    A6        1.80659  -0.00176  -0.02637   0.00000  -0.02619   1.78040
    A7        1.91209  -0.00222  -0.02683   0.00000  -0.02703   1.88506
    A8        1.90554   0.00119   0.00701   0.00000   0.00649   1.91203
    A9        1.88714   0.00164   0.01128   0.00000   0.01056   1.89769
   A10        1.93241  -0.00068  -0.02010   0.00000  -0.02007   1.91234
   A11        1.20800   0.00179   0.01800   0.00000   0.01800   1.22600
   A12        1.22828   0.00024  -0.00333   0.00000  -0.00318   1.22510
   A13        1.89368  -0.00084  -0.01635   0.00000  -0.01672   1.87695
   A14        1.97817   0.00098  -0.00141   0.00000  -0.00152   1.97665
   A15        1.87450  -0.00083  -0.01246   0.00000  -0.01286   1.86164
   A16        2.09330   0.00117   0.00252   0.00000   0.00202   2.09532
   A17        1.81697  -0.00083  -0.02221   0.00000  -0.02182   1.79515
   A18        1.60343  -0.00026  -0.01149   0.00000  -0.01182   1.59161
   A19        1.72800   0.00159   0.00868   0.00000   0.00822   1.73621
   A20        1.86196  -0.00157  -0.02706   0.00000  -0.02668   1.83528
   A21        1.28868   0.00135   0.01772   0.00000   0.01742   1.30610
   A22        1.49533   0.00064  -0.00076   0.00000  -0.00074   1.49459
   A23        1.78625   0.00004  -0.00458   0.00000  -0.00480   1.78145
   A24        2.38343  -0.00023  -0.01671   0.00000  -0.01674   2.36669
   A25        1.90189  -0.00086  -0.01567   0.00000  -0.01598   1.88591
   A26        1.37479   0.00037   0.01012   0.00000   0.00976   1.38455
   A27        1.87222  -0.00027   0.00157   0.00000   0.00126   1.87348
   A28        2.34801  -0.00289  -0.03712   0.00000  -0.03713   2.31088
   A29        1.41894   0.00285   0.03951   0.00000   0.03978   1.45872
   A30        1.60637   0.00000  -0.00007   0.00000   0.00020   1.60656
   A31        1.39625   0.00002   0.00711   0.00000   0.00688   1.40313
    D1       -0.61738   0.00144   0.01914   0.00000   0.01879  -0.59859
    D2        0.46719  -0.00061  -0.01153   0.00000  -0.01059   0.45661
    D3       -1.59162   0.00237   0.03462   0.00000   0.03454  -1.55708
    D4       -0.24067   0.00003   0.00035   0.00000   0.00039  -0.24028
    D5        0.25132  -0.00177  -0.03951   0.00000  -0.03916   0.21216
    D6       -0.62855  -0.00126  -0.02051   0.00000  -0.02078  -0.64934
    D7       -1.53299  -0.00093  -0.00855   0.00000  -0.00827  -1.54126
    D8        0.81649  -0.00081  -0.02065   0.00000  -0.02058   0.79591
    D9        1.45006  -0.00211  -0.01839   0.00000  -0.01786   1.43220
   D10       -0.87918   0.00090   0.01895   0.00000   0.01933  -0.85985
   D11        0.32063  -0.00310  -0.04126   0.00000  -0.04118   0.27945
   D12        0.99386  -0.00136  -0.02505   0.00000  -0.02484   0.96902
   D13        0.00422   0.00173   0.02538   0.00000   0.02559   0.02981
   D14       -1.26747   0.00044   0.00855   0.00000   0.00899  -1.25848
   D15       -0.35447   0.00017   0.00670   0.00000   0.00572  -0.34875
   D16        0.62846  -0.00083  -0.01165   0.00000  -0.01146   0.61700
   D17        1.58648  -0.00161  -0.03055   0.00000  -0.02940   1.55707
   D18       -0.98755  -0.00122  -0.01214   0.00000  -0.01211  -0.99966
   D19        0.01250  -0.00097  -0.01782   0.00000  -0.01768  -0.00518
   D20       -0.29444   0.00038   0.00193   0.00000   0.00203  -0.29241
   D21        0.70561   0.00063  -0.00375   0.00000  -0.00354   0.70207
   D22       -1.25225   0.00168   0.02188   0.00000   0.02215  -1.23010
   D23       -0.01380   0.00107   0.01963   0.00000   0.01953   0.00573
   D24       -0.65283   0.00163   0.02906   0.00000   0.02903  -0.62380
   D25       -0.83468   0.00050   0.01592   0.00000   0.01630  -0.81838
   D26        0.92257   0.00180   0.02295   0.00000   0.02284   0.94541
   D27       -0.01391   0.00108   0.01976   0.00000   0.01968   0.00577
   D28        0.86507  -0.00036  -0.00295   0.00000  -0.00212   0.86294
   D29       -1.45025   0.00187   0.02135   0.00000   0.02094  -1.42931
   D30        0.16984   0.00041   0.00509   0.00000   0.00559   0.17543
   D31        1.89714  -0.00175  -0.02444   0.00000  -0.02435   1.87279
   D32        0.84794  -0.00136  -0.02665   0.00000  -0.02633   0.82161
   D33        1.06338  -0.00149  -0.01777   0.00000  -0.01812   1.04526
   D34        0.01418  -0.00110  -0.01998   0.00000  -0.02009  -0.00592
   D35        0.05339  -0.00070  -0.00928   0.00000  -0.00926   0.04413
   D36       -0.99581  -0.00032  -0.01149   0.00000  -0.01124  -1.00705
         Item               Value     Threshold  Converged?
 Maximum Force            0.011264     0.000450     NO 
 RMS     Force            0.003589     0.000300     NO 
 Maximum Displacement     0.103699     0.001800     NO 
 RMS     Displacement     0.028727     0.001200     NO 
 Predicted change in Energy=-1.005811D-02
 GradGradGradGradGradGradGradGradGradGradGradGradGradGradGradGradGradGrad

                          Input orientation:                          
 ---------------------------------------------------------------------
 Center     Atomic     Atomic              Coordinates (Angstroms)
 Number     Number      Type              X           Y           Z
 ---------------------------------------------------------------------
    1         14             0       -0.851824    1.980835   -1.164659
    2         14             0       -0.990587   -1.684711    1.348901
    3         14             0        1.422435    1.105156   -0.882361
    4         14             0        1.348073   -0.945728    1.018898
    5         14             0       -0.872883    0.851491    1.163292
    6         14             0       -0.496836   -1.514742   -1.088553
    7         14             0        1.933171   -1.212212   -1.355978
    8         14             0        1.530570    1.420749    1.518925
    9         14             0       -2.345621    0.075809   -0.888752
 ---------------------------------------------------------------------
                    Distance matrix (angstroms):
                    1          2          3          4          5
     1  Si   0.000000
     2  Si   4.446737   0.000000
     3  Si   2.453315   4.310982   0.000000
     4  Si   4.262891   2.474738   2.797578   0.000000
     5  Si   2.587512   2.545707   3.085049   2.860680   0.000000
     6  Si   3.514380   2.492762   3.254225   2.858114   3.288051
     7  Si   4.241266   4.010983   2.419785   2.460363   4.298782
     8  Si   3.631958   4.003626   2.424349   2.425602   2.495419
     9  Si   2.436530   3.153195   3.906129   4.280893   2.642257
                    6          7          8          9
     6  Si   0.000000
     7  Si   2.463326   0.000000
     8  Si   4.418871   3.919137   0.000000
     9  Si   2.446994   4.492812   4.757166   0.000000
 Symmetry turned off by external request.
 Stoichiometry    Si9(1-,2)
 Framework group  C1[X(Si9)]
 Deg. of freedom    21
 Full point group                 C1
 Rotational constants (GHZ):      0.6537844      0.5915058      0.5361168
 Standard basis: LANL2DZ (5D, 7F)
 Integral buffers will be    131072 words long.
 Raffenetti 2 integral format.
 Two-electron integral symmetry is turned off.
    72 basis functions,   108 primitive gaussians,    72 cartesian basis functions
    19 alpha electrons       18 beta electrons
       nuclear repulsion energy        97.9875349261 Hartrees.
 NAtoms=    9 NActive=    9 NUniq=    9 SFac= 7.50D-01 NAtFMM=   80 NAOKFM=F Big=F
 One-electron integrals computed using PRISM.
   1 Symmetry operations used in ECPInt.
 ECPInt:  NShTT=     666 NPrTT=    1503 LenC2=     667 LenP2D=    1468.
 LDataN:  DoStor=F MaxTD1= 3 Len=   28
 LDataN:  DoStor=T MaxTD1= 3 Len=   28
 NBasis=    72 RedAO= T  NBF=    72
 NBsUse=    72 1.00D-06 NBFU=    72
 Initial guess read from the read-write file:
 <S**2> of initial guess= 0.7568
 Harris functional with IExCor=  402 diagonalized for initial guess.
 ExpMin= 8.85D-02 ExpMax= 2.58D+00 ExpMxC= 2.58D+00 IAcc=2 IRadAn=         4 AccDes= 0.00D+00
 HarFok:  IExCor= 402 AccDes= 0.00D+00 IRadAn=         4 IDoV=1
 ScaDFX=  1.000000  1.000000  1.000000  1.000000
 Requested convergence on RMS density matrix=1.00D-08 within 128 cycles.
 Requested convergence on MAX density matrix=1.00D-06.
 Requested convergence on             energy=1.00D-06.
 No special actions if energy rises.
 Keep R1 and R2 integrals in memory in canonical form, NReq=     8709372.
 Integral accuracy reduced to 1.0D-05 until final iterations.
 Initial convergence to 1.0D-05 achieved.  Increase integral accuracy.
 SCF Done:  E(UB+HF-LYP) =  -34.8323636409     A.U. after   21 cycles
             Convg  =    0.9520D-08             -V/T =  3.5914
             S**2   =   0.7570
 Annihilation of the first spin contaminant:
 S**2 before annihilation     0.7570,   after     0.7500
 QCSCF skips out because SCF is already converged.
 Range of M.O.s used for correlation:     1    72
 NBasis=    72 NAE=    19 NBE=    18 NFC=     0 NFV=     0
 NROrb=     72 NOA=    19 NOB=    18 NVA=    53 NVB=    54

 **** Warning!!: The smallest alpha delta epsilon is  0.87435995D-01


 **** Warning!!: The smallest beta delta epsilon is  0.71177651D-01

   1 Symmetry operations used in ECPInt.
 ECPInt:  NShTT=     666 NPrTT=    1503 LenC2=     667 LenP2D=    1468.
 LDataN:  DoStor=F MaxTD1= 4 Len=   56
 LDataN:  DoStor=T MaxTD1= 4 Len=   56
 Symmetrizing basis deriv contribution to polar:
 IMax=3 JMax=2 DiffMx= 0.00D+00
 G2DrvN: will do   10 centers at a time, making    1 passes doing MaxLOS=1.
 FoFDir/FoFCou used for L=0 through L=1.
 DoAtom=TTTTTTTTT
          Differentiating once with respect to electric field.
                with respect to dipole field.
          Differentiating once with respect to nuclear coordinates.
          Store integrals in memory, NReq=     7711552.
          There are  30 degrees of freedom in the 1st order CPHF.
    27 vectors were produced by pass  0.
 AX will form  27 AO Fock derivatives at one time.
    27 vectors were produced by pass  1.
    27 vectors were produced by pass  2.
    27 vectors were produced by pass  3.
    27 vectors were produced by pass  4.
    27 vectors were produced by pass  5.
    27 vectors were produced by pass  6.
    25 vectors were produced by pass  7.
     8 vectors were produced by pass  8.
     3 vectors were produced by pass  9.
     1 vectors were produced by pass 10.
 Inv2:  IOpt= 1 Iter= 1 AM= 1.72D-15 Conv= 1.00D-12.
 Inverted reduced A of dimension  226 with in-core refinement.
 Isotropic polarizability for W=    0.000000      286.45 Bohr**3.
 End of Minotr Frequency-dependent properties file   721 does not exist.
   1 Symmetry operations used in ECPInt.
 ECPInt:  NShTT=     666 NPrTT=    1503 LenC2=     667 LenP2D=    1503.
 LDataN:  DoStor=F MaxTD1= 5 Len=  102
 LDataN:  DoStor=T MaxTD1= 5 Len=  102
 -------------------------------------------------------------------
 Center     Atomic                   Forces (Hartrees/Bohr)
 Number     Number              X              Y              Z
 -------------------------------------------------------------------
    1         14           0.001375809    0.002715423   -0.003922702
    2         14          -0.001280423   -0.001739478    0.005603317
    3         14           0.007012917    0.009258772   -0.008927149
    4         14           0.009770253   -0.007787350    0.006573905
    5         14          -0.012119201    0.002530562    0.010228667
    6         14          -0.005536470   -0.005582762   -0.005743212
    7         14           0.003142625   -0.001360064   -0.002631024
    8         14           0.002466774    0.001384084    0.002743276
    9         14          -0.004832283    0.000580812   -0.003925079
 -------------------------------------------------------------------
 Cartesian Forces:  Max     0.012119201 RMS     0.005775461

 GradGradGradGradGradGradGradGradGradGradGradGradGradGradGradGradGradGrad
 Berny optimization.
 Internal  Forces:  Max     0.006354659 RMS     0.001776233
 Search for a local minimum.
 Step number   3 out of a maximum of 100
 All quantities printed in internal units (Hartrees-Bohrs-Radians)
 Second derivative matrix not updated -- analytic derivatives used.
 Maximum step size (   0.424) exceeded in linear search.
    -- Step size scaled by   0.824
 Quintic linear search produced a step of  1.00007.
 Iteration  1 RMS(Cart)=  0.02865550 RMS(Int)=  0.00063242
 Iteration  2 RMS(Cart)=  0.00036543 RMS(Int)=  0.00043436
 Iteration  3 RMS(Cart)=  0.00000014 RMS(Int)=  0.00043436
 Variable       Old X    -DE/DX   Delta X   Delta X   Delta X     New X
                                 (Linear)    (Quad)   (Total)
    R1        4.63609   0.00098   0.02984   0.00000   0.02983   4.66593
    R2        4.88969   0.00355   0.08792   0.00000   0.08770   4.97739
    R3        4.60437   0.00266   0.07232   0.00000   0.07255   4.67692
    R4        4.67658   0.00226   0.06121   0.00000   0.06113   4.73771
    R5        4.81069   0.00165   0.04960   0.00000   0.04935   4.86004
    R6        4.71064   0.00424   0.10342   0.00000   0.10396   4.81459
    R7        5.28666   0.00608   0.15597   0.00000   0.15619   5.44285
    R8        5.82990   0.00635   0.16648   0.00000   0.16648   5.99638
    R9        4.57273   0.00244   0.06203   0.00000   0.06228   4.63501
   R10        4.58136   0.00207   0.05268   0.00000   0.05319   4.63454
   R11        5.40590   0.00556   0.14216   0.00000   0.14230   5.54820
   R12        5.40105   0.00456   0.11908   0.00000   0.11853   5.51958
   R13        4.64941   0.00155   0.03954   0.00000   0.03898   4.68839
   R14        4.58372   0.00120   0.03111   0.00000   0.03051   4.61424
   R15        4.71566   0.00293   0.07446   0.00000   0.07446   4.79011
   R16        4.99314   0.00348   0.09070   0.00000   0.09075   5.08389
   R17        4.65501   0.00342   0.08584   0.00000   0.08623   4.74124
   R18        4.62415   0.00305   0.08206   0.00000   0.08206   4.70621
    A1        1.85067   0.00129   0.03395   0.00000   0.03393   1.88460
    A2        1.42186   0.00029   0.01048   0.00000   0.01002   1.43189
    A3        1.89149  -0.00047  -0.01434   0.00000  -0.01485   1.87664
    A4        2.11177  -0.00122  -0.03481   0.00000  -0.03569   2.07608
    A5        1.67987   0.00021   0.00520   0.00000   0.00400   1.68387
    A6        1.78040  -0.00096  -0.02619   0.00000  -0.02599   1.75441
    A7        1.88506  -0.00107  -0.02703   0.00000  -0.02724   1.85782
    A8        1.91203   0.00018   0.00649   0.00000   0.00588   1.91791
    A9        1.89769   0.00046   0.01056   0.00000   0.00968   1.90737
   A10        1.91234  -0.00084  -0.02007   0.00000  -0.02003   1.89231
   A11        1.22600   0.00056   0.01800   0.00000   0.01797   1.24397
   A12        1.22510  -0.00022  -0.00318   0.00000  -0.00302   1.22208
   A13        1.87695  -0.00065  -0.01673   0.00000  -0.01718   1.85978
   A14        1.97665  -0.00019  -0.00152   0.00000  -0.00168   1.97497
   A15        1.86164  -0.00053  -0.01286   0.00000  -0.01336   1.84828
   A16        2.09532   0.00016   0.00202   0.00000   0.00144   2.09676
   A17        1.79515  -0.00083  -0.02182   0.00000  -0.02141   1.77374
   A18        1.59161  -0.00051  -0.01182   0.00000  -0.01221   1.57940
   A19        1.73621   0.00032   0.00822   0.00000   0.00767   1.74389
   A20        1.83528  -0.00105  -0.02668   0.00000  -0.02624   1.80904
   A21        1.30610   0.00082   0.01742   0.00000   0.01708   1.32318
   A22        1.49459  -0.00009  -0.00074   0.00000  -0.00072   1.49387
   A23        1.78145  -0.00013  -0.00480   0.00000  -0.00506   1.77639
   A24        2.36669  -0.00069  -0.01675   0.00000  -0.01680   2.34989
   A25        1.88591  -0.00067  -0.01598   0.00000  -0.01633   1.86958
   A26        1.38455   0.00047   0.00976   0.00000   0.00936   1.39391
   A27        1.87348   0.00016   0.00126   0.00000   0.00091   1.87438
   A28        2.31088  -0.00129  -0.03713   0.00000  -0.03715   2.27373
   A29        1.45872   0.00135   0.03978   0.00000   0.04008   1.49879
   A30        1.60656  -0.00004   0.00020   0.00000   0.00047   1.60704
   A31        1.40313   0.00018   0.00688   0.00000   0.00661   1.40973
    D1       -0.59859   0.00066   0.01879   0.00000   0.01840  -0.58019
    D2        0.45661  -0.00039  -0.01059   0.00000  -0.00952   0.44708
    D3       -1.55708   0.00128   0.03455   0.00000   0.03445  -1.52263
    D4       -0.24028   0.00006   0.00039   0.00000   0.00042  -0.23986
    D5        0.21216  -0.00158  -0.03916   0.00000  -0.03878   0.17337
    D6       -0.64934  -0.00083  -0.02078   0.00000  -0.02108  -0.67042
    D7       -1.54126  -0.00035  -0.00828   0.00000  -0.00795  -1.54922
    D8        0.79591  -0.00085  -0.02058   0.00000  -0.02053   0.77538
    D9        1.43220  -0.00049  -0.01786   0.00000  -0.01727   1.41493
   D10       -0.85985   0.00077   0.01933   0.00000   0.01974  -0.84011
   D11        0.27945  -0.00160  -0.04118   0.00000  -0.04106   0.23840
   D12        0.96902  -0.00095  -0.02484   0.00000  -0.02460   0.94442
   D13        0.02981   0.00098   0.02559   0.00000   0.02582   0.05564
   D14       -1.25848   0.00020   0.00899   0.00000   0.00948  -1.24901
   D15       -0.34875   0.00020   0.00572   0.00000   0.00459  -0.34416
   D16        0.61700  -0.00037  -0.01147   0.00000  -0.01126   0.60573
   D17        1.55707  -0.00101  -0.02940   0.00000  -0.02812   1.52895
   D18       -0.99966  -0.00044  -0.01211   0.00000  -0.01209  -1.01176
   D19       -0.00518  -0.00069  -0.01768   0.00000  -0.01753  -0.02270
   D20       -0.29241   0.00004   0.00203   0.00000   0.00212  -0.29029
   D21        0.70207  -0.00021  -0.00354   0.00000  -0.00331   0.69876
   D22       -1.23010   0.00085   0.02215   0.00000   0.02245  -1.20764
   D23        0.00573   0.00077   0.01953   0.00000   0.01943   0.02516
   D24       -0.62380   0.00110   0.02904   0.00000   0.02898  -0.59482
   D25       -0.81838   0.00062   0.01630   0.00000   0.01673  -0.80165
   D26        0.94541   0.00087   0.02284   0.00000   0.02271   0.96811
   D27        0.00577   0.00077   0.01968   0.00000   0.01958   0.02535
   D28        0.86294   0.00003  -0.00212   0.00000  -0.00121   0.86174
   D29       -1.42931   0.00067   0.02094   0.00000   0.02047  -1.40885
   D30        0.17543   0.00023   0.00559   0.00000   0.00617   0.18160
   D31        1.87279  -0.00095  -0.02435   0.00000  -0.02424   1.84855
   D32        0.82161  -0.00108  -0.02633   0.00000  -0.02597   0.79564
   D33        1.04526  -0.00066  -0.01812   0.00000  -0.01849   1.02676
   D34       -0.00592  -0.00079  -0.02010   0.00000  -0.02023  -0.02614
   D35        0.04413  -0.00039  -0.00926   0.00000  -0.00922   0.03491
   D36       -1.00705  -0.00052  -0.01124   0.00000  -0.01095  -1.01800
         Item               Value     Threshold  Converged?
 Maximum Force            0.006355     0.000450     NO 
 RMS     Force            0.001776     0.000300     NO 
 Maximum Displacement     0.105315     0.001800     NO 
 RMS     Displacement     0.028730     0.001200     NO 
 Predicted change in Energy=-3.810013D-03
 GradGradGradGradGradGradGradGradGradGradGradGradGradGradGradGradGradGrad

                          Input orientation:                          
 ---------------------------------------------------------------------
 Center     Atomic     Atomic              Coordinates (Angstroms)
 Number     Number      Type              X           Y           Z
 ---------------------------------------------------------------------
    1         14             0       -0.841853    1.994294   -1.190750
    2         14             0       -0.993415   -1.697483    1.397946
    3         14             0        1.464185    1.160887   -0.900764
    4         14             0        1.378590   -0.972757    1.032100
    5         14             0       -0.906415    0.864242    1.187562
    6         14             0       -0.524835   -1.564614   -1.102839
    7         14             0        1.942376   -1.197887   -1.373471
    8         14             0        1.543990    1.410339    1.537704
    9         14             0       -2.386126    0.079629   -0.917775
 ---------------------------------------------------------------------
                    Distance matrix (angstroms):
                    1          2          3          4          5
     1  Si   0.000000
     2  Si   4.511489   0.000000
     3  Si   2.469103   4.415217   0.000000
     4  Si   4.321437   2.507086   2.880231   0.000000
     5  Si   2.633924   2.571821   3.173145   2.935980   0.000000
     6  Si   3.574081   2.547773   3.380147   2.920836   3.360191
     7  Si   4.239733   4.068073   2.452740   2.480990   4.350503
     8  Si   3.671200   4.014538   2.452493   2.441749   2.534819
     9  Si   2.474921   3.234244   3.999287   4.368365   2.690280
                    6          7          8          9
     6  Si   0.000000
     7  Si   2.508956   0.000000
     8  Si   4.483620   3.928931   0.000000
     9  Si   2.490420   4.536038   4.821408   0.000000
 Symmetry turned off by external request.
 Stoichiometry    Si9(1-,2)
 Framework group  C1[X(Si9)]
 Deg. of freedom    21
 Full point group                 C1
 Rotational constants (GHZ):      0.6335420      0.5723359      0.5211040
 Standard basis: LANL2DZ (5D, 7F)
 Integral buffers will be    131072 words long.
 Raffenetti 2 integral format.
 Two-electron integral symmetry is turned off.
    72 basis functions,   108 primitive gaussians,    72 cartesian basis functions
    19 alpha electrons       18 beta electrons
       nuclear repulsion energy        96.4203644152 Hartrees.
 NAtoms=    9 NActive=    9 NUniq=    9 SFac= 7.50D-01 NAtFMM=   80 NAOKFM=F Big=F
 One-electron integrals computed using PRISM.
   1 Symmetry operations used in ECPInt.
 ECPInt:  NShTT=     666 NPrTT=    1503 LenC2=     667 LenP2D=    1465.
 LDataN:  DoStor=F MaxTD1= 3 Len=   28
 LDataN:  DoStor=T MaxTD1= 3 Len=   28
 NBasis=    72 RedAO= T  NBF=    72
 NBsUse=    72 1.00D-06 NBFU=    72
 Initial guess read from the read-write file:
 <S**2> of initial guess= 0.7572
 Harris functional with IExCor=  402 diagonalized for initial guess.
 ExpMin= 8.85D-02 ExpMax= 2.58D+00 ExpMxC= 2.58D+00 IAcc=2 IRadAn=         4 AccDes= 0.00D+00
 HarFok:  IExCor= 402 AccDes= 0.00D+00 IRadAn=         4 IDoV=1
 ScaDFX=  1.000000  1.000000  1.000000  1.000000
 Requested convergence on RMS density matrix=1.00D-08 within 128 cycles.
 Requested convergence on MAX density matrix=1.00D-06.
 Requested convergence on             energy=1.00D-06.
 No special actions if energy rises.
 Keep R1 and R2 integrals in memory in canonical form, NReq=     8709372.
 Integral accuracy reduced to 1.0D-05 until final iterations.
 Initial convergence to 1.0D-05 achieved.  Increase integral accuracy.
 SCF Done:  E(UB+HF-LYP) =  -34.8363169151     A.U. after   21 cycles
             Convg  =    0.9250D-08             -V/T =  3.6242
             S**2   =   0.7575
 Annihilation of the first spin contaminant:
 S**2 before annihilation     0.7575,   after     0.7500
 QCSCF skips out because SCF is already converged.
 Range of M.O.s used for correlation:     1    72
 NBasis=    72 NAE=    19 NBE=    18 NFC=     0 NFV=     0
 NROrb=     72 NOA=    19 NOB=    18 NVA=    53 NVB=    54

 **** Warning!!: The smallest alpha delta epsilon is  0.83441465D-01


 **** Warning!!: The smallest beta delta epsilon is  0.71791801D-01

   1 Symmetry operations used in ECPInt.
 ECPInt:  NShTT=     666 NPrTT=    1503 LenC2=     667 LenP2D=    1465.
 LDataN:  DoStor=F MaxTD1= 4 Len=   56
 LDataN:  DoStor=T MaxTD1= 4 Len=   56
 Symmetrizing basis deriv contribution to polar:
 IMax=3 JMax=2 DiffMx= 0.00D+00
 G2DrvN: will do   10 centers at a time, making    1 passes doing MaxLOS=1.
 FoFDir/FoFCou used for L=0 through L=1.
 DoAtom=TTTTTTTTT
          Differentiating once with respect to electric field.
                with respect to dipole field.
          Differentiating once with respect to nuclear coordinates.
          Store integrals in memory, NReq=     7711566.
          There are  30 degrees of freedom in the 1st order CPHF.
    27 vectors were produced by pass  0.
 AX will form  27 AO Fock derivatives at one time.
    27 vectors were produced by pass  1.
    27 vectors were produced by pass  2.
    27 vectors were produced by pass  3.
    27 vectors were produced by pass  4.
    27 vectors were produced by pass  5.
    27 vectors were produced by pass  6.
    26 vectors were produced by pass  7.
     8 vectors were produced by pass  8.
     3 vectors were produced by pass  9.
     3 vectors were produced by pass 10.
 Inv2:  IOpt= 1 Iter= 1 AM= 2.25D-15 Conv= 1.00D-12.
 Inverted reduced A of dimension  229 with in-core refinement.
 Isotropic polarizability for W=    0.000000      292.58 Bohr**3.
 End of Minotr Frequency-dependent properties file   721 does not exist.
   1 Symmetry operations used in ECPInt.
 ECPInt:  NShTT=     666 NPrTT=    1503 LenC2=     667 LenP2D=    1503.
 LDataN:  DoStor=F MaxTD1= 5 Len=  102
 LDataN:  DoStor=T MaxTD1= 5 Len=  102
 -------------------------------------------------------------------
 Center     Atomic                   Forces (Hartrees/Bohr)
 Number     Number              X              Y              Z
 -------------------------------------------------------------------
    1         14           0.000306460   -0.002090309   -0.000506672
    2         14           0.002650422    0.002218623   -0.000912755
    3         14           0.001551373    0.001559849   -0.003445231
    4         14           0.003888491   -0.003444611    0.001658518
    5         14          -0.006969404   -0.001070834    0.004293397
    6         14          -0.003661261    0.001244281    0.000693860
    7         14          -0.000780258    0.000047596    0.000233681
    8         14          -0.000784504    0.000015382   -0.000374536
    9         14           0.003798681    0.001520023   -0.001640262
 -------------------------------------------------------------------
 Cartesian Forces:  Max     0.006969404 RMS     0.002497300

 GradGradGradGradGradGradGradGradGradGradGradGradGradGradGradGradGradGrad
 Berny optimization.
 Internal  Forces:  Max     0.002984224 RMS     0.000803839
 Search for a local minimum.
 Step number   4 out of a maximum of 100
 All quantities printed in internal units (Hartrees-Bohrs-Radians)
 Second derivative matrix not updated -- analytic derivatives used.
     Eigenvalues ---    0.00220   0.00738   0.01002   0.01440   0.01549
     Eigenvalues ---    0.01940   0.02095   0.02109   0.02260   0.02748
     Eigenvalues ---    0.02924   0.03278   0.03517   0.03900   0.04350
     Eigenvalues ---    0.04665   0.04729   0.05394   0.05798   0.05874
     Eigenvalues ---    0.068081000.000001000.000001000.000001000.00000
     Eigenvalues --- 1000.000001000.000001000.000001000.000001000.00000
     Eigenvalues --- 1000.000001000.000001000.000001000.000001000.00000
     Eigenvalues --- 1000.000001000.000001000.000001000.000001000.00000
     Eigenvalues --- 1000.000001000.000001000.000001000.000001000.00000
     Eigenvalues --- 1000.000001000.000001000.000001000.000001000.00000
     Eigenvalues --- 1000.000001000.000001000.000001000.000001000.00000
     Eigenvalues --- 1000.000001000.000001000.000001000.000001000.00000
     Eigenvalues --- 1000.000001000.000001000.000001000.000001000.00000
     Eigenvalues --- 1000.000001000.000001000.000001000.000001000.00000
     Eigenvalues --- 1000.000001000.000001000.000001000.000001000.00000
     Eigenvalues --- 1000.000001000.000001000.000001000.000001000.00000
     Eigenvalues --- 1000.000001000.000001000.000001000.000001000.00000
 RFO step:  Lambda=-3.94780759D-03.
 Quintic linear search produced a step of  0.20742.
 Maximum step size (   0.424) exceeded in Quadratic search.
    -- Step size scaled by   0.638
 Iteration  1 RMS(Cart)=  0.03596826 RMS(Int)=  0.00213257
 Iteration  2 RMS(Cart)=  0.00145348 RMS(Int)=  0.00092247
 Iteration  3 RMS(Cart)=  0.00000126 RMS(Int)=  0.00092247
 Iteration  4 RMS(Cart)=  0.00000000 RMS(Int)=  0.00092247
 Variable       Old X    -DE/DX   Delta X   Delta X   Delta X     New X
                                 (Linear)    (Quad)   (Total)
    R1        4.66593  -0.00104   0.00619  -0.04390  -0.03772   4.62821
    R2        4.97739   0.00104   0.01819   0.09340   0.11163   5.08903
    R3        4.67692  -0.00207   0.01505  -0.07139  -0.05471   4.62221
    R4        4.73771  -0.00092   0.01268  -0.03496  -0.02220   4.71550
    R5        4.86004  -0.00166   0.01024  -0.04555  -0.03568   4.82435
    R6        4.81459  -0.00062   0.02156  -0.07897  -0.05696   4.75763
    R7        5.44285   0.00150   0.03240   0.00163   0.03264   5.47549
    R8        5.99638   0.00280   0.03453   0.18036   0.21401   6.21038
    R9        4.63501  -0.00055   0.01292  -0.02363  -0.01009   4.62492
   R10        4.63454   0.00007   0.01103   0.01049   0.02187   4.65641
   R11        5.54820   0.00298   0.02952   0.05049   0.07968   5.62788
   R12        5.51958   0.00130   0.02459   0.06408   0.08827   5.60785
   R13        4.68839  -0.00016   0.00809   0.00095   0.00934   4.69773
   R14        4.61424   0.00009   0.00633   0.00014   0.00727   4.62151
   R15        4.79011  -0.00019   0.01544   0.04022   0.05602   4.84614
[...]
 Vibration 19             0.762              1.480              0.980
 Vibration 20             0.798              1.387              0.833
 Vibration 21             0.807              1.366              0.802
                       Q            Log10(Q)             Ln(Q)
 Total Bot       0.390879D+13         12.592042         28.994249
 Total V=0       0.380194D+19         18.580005         42.782042
 Vib (Bot)       0.707590D-02         -2.150218         -4.951060
 Vib (Bot)  1    0.575901D+01          0.760348          1.750765
 Vib (Bot)  2    0.203477D+01          0.308516          0.710385
 Vib (Bot)  3    0.145248D+01          0.162110          0.373273
 Vib (Bot)  4    0.117282D+01          0.069233          0.159414
 Vib (Bot)  5    0.102980D+01          0.012751          0.029360
 Vib (Bot)  6    0.927465D+00         -0.032703         -0.075301
 Vib (Bot)  7    0.897583D+00         -0.046925         -0.108049
 Vib (Bot)  8    0.847264D+00         -0.071981         -0.165743
 Vib (Bot)  9    0.807900D+00         -0.092642         -0.213317
 Vib (Bot) 10    0.740913D+00         -0.130233         -0.299872
 Vib (Bot) 11    0.704085D+00         -0.152375         -0.350856
 Vib (Bot) 12    0.665495D+00         -0.176855         -0.407225
 Vib (Bot) 13    0.653462D+00         -0.184780         -0.425471
 Vib (Bot) 14    0.582189D+00         -0.234936         -0.540960
 Vib (Bot) 15    0.550464D+00         -0.259271         -0.596995
 Vib (Bot) 16    0.529620D+00         -0.276036         -0.635596
 Vib (Bot) 17    0.491217D+00         -0.308727         -0.710870
 Vib (Bot) 18    0.465322D+00         -0.332246         -0.765025
 Vib (Bot) 19    0.452514D+00         -0.344368         -0.792936
 Vib (Bot) 20    0.395388D+00         -0.402976         -0.927887
 Vib (Bot) 21    0.383600D+00         -0.416121         -0.958154
 Vib (V=0)       0.688247D+04          3.837744          8.836733
 Vib (V=0)  1    0.628067D+01          0.798006          1.837477
 Vib (V=0)  2    0.259531D+01          0.414188          0.953704
 Vib (V=0)  3    0.203613D+01          0.308806          0.711052
 Vib (V=0)  4    0.177496D+01          0.249188          0.573776
 Vib (V=0)  5    0.164476D+01          0.216103          0.497595
 Vib (V=0)  6    0.155366D+01          0.191355          0.440611
 Vib (V=0)  7    0.152745D+01          0.183967          0.423600
 Vib (V=0)  8    0.148380D+01          0.171374          0.394604
 Vib (V=0)  9    0.145011D+01          0.161400          0.371637
 Vib (V=0) 10    0.139384D+01          0.144213          0.332063
 Vib (V=0) 11    0.136356D+01          0.134674          0.310099
 Vib (V=0) 12    0.133240D+01          0.124633          0.286979
 Vib (V=0) 13    0.132281D+01          0.121497          0.279757
 Vib (V=0) 14    0.126743D+01          0.102923          0.236989
 Vib (V=0) 15    0.124365D+01          0.094697          0.218048
 Vib (V=0) 16    0.122835D+01          0.089323          0.205674
 Vib (V=0) 17    0.120092D+01          0.079515          0.183091
 Vib (V=0) 18    0.118303D+01          0.072994          0.168076
 Vib (V=0) 19    0.117437D+01          0.069803          0.160728
 Vib (V=0) 20    0.113744D+01          0.055929          0.128782
 Vib (V=0) 21    0.113020D+01          0.053154          0.122393
 Electronic      0.200000D+01          0.301030          0.693147
 Translational   0.157043D+09          8.196019         18.872031
 Rotational      0.175878D+07          6.245211         14.380131
 ***** Axes restored to original set *****
 -------------------------------------------------------------------
 Center     Atomic                   Forces (Hartrees/Bohr)
 Number     Number              X              Y              Z
 -------------------------------------------------------------------
    1         14          -0.000004574   -0.000004972    0.000003404
    2         14          -0.000025597    0.000006603    0.000037653
    3         14          -0.000026569   -0.000006582   -0.000005449
    4         14          -0.000000319   -0.000004129   -0.000022414
    5         14           0.000037837    0.000068745   -0.000000265
    6         14           0.000007141   -0.000011292   -0.000021101
    7         14           0.000000975   -0.000016782   -0.000006203
    8         14           0.000004643   -0.000001792   -0.000020030
    9         14           0.000006462   -0.000029799    0.000034406
 -------------------------------------------------------------------
 Cartesian Forces:  Max     0.000068745 RMS     0.000022039

 GradGradGradGradGradGradGradGradGradGradGradGradGradGradGradGradGradGrad
 Berny optimization.
 Internal  Forces:  Max     0.000020743 RMS     0.000007717
 Search for a local minimum.
 Step number   1 out of a maximum of   2
 All quantities printed in internal units (Hartrees-Bohrs-Radians)
 Second derivative matrix not updated -- analytic derivatives used.
     Eigenvalues ---    0.00092   0.00577   0.01284   0.01436   0.01901
     Eigenvalues ---    0.02146   0.02372   0.02716   0.02792   0.03505
     Eigenvalues ---    0.04024   0.04150   0.04578   0.04893   0.05522
     Eigenvalues ---    0.06061   0.06217   0.06454   0.06755   0.07375
     Eigenvalues ---    0.079251000.000001000.000001000.000001000.00000
     Eigenvalues --- 1000.000001000.000001000.000001000.000001000.00000
     Eigenvalues --- 1000.000001000.000001000.000001000.000001000.00000
     Eigenvalues --- 1000.000001000.000001000.000001000.000001000.00000
     Eigenvalues --- 1000.000001000.000001000.000001000.000001000.00000
     Eigenvalues --- 1000.000001000.000001000.000001000.000001000.00000
     Eigenvalues --- 1000.000001000.000001000.000001000.000001000.00000
     Eigenvalues --- 1000.000001000.000001000.000001000.000001000.00000
     Eigenvalues --- 1000.000001000.000001000.000001000.000001000.00000
     Eigenvalues --- 1000.000001000.000001000.000001000.000001000.00000
     Eigenvalues --- 1000.000001000.000001000.000001000.000001000.00000
     Eigenvalues --- 1000.000001000.000001000.000001000.000001000.00000
     Eigenvalues --- 1000.000001000.000001000.000001000.000001000.00000
 Angle between quadratic step and forces=  38.60 degrees.
 Linear search not attempted -- first point.
 Iteration  1 RMS(Cart)=  0.00527274 RMS(Int)=  0.00003929
 Iteration  2 RMS(Cart)=  0.00002081 RMS(Int)=  0.00002050
 Iteration  3 RMS(Cart)=  0.00000000 RMS(Int)=  0.00002050
 Variable       Old X    -DE/DX   Delta X   Delta X   Delta X     New X
                                 (Linear)    (Quad)   (Total)
    R1        4.59472   0.00000   0.00000   0.00358   0.00359   4.59830
    R2        4.78487  -0.00001   0.00000  -0.00878  -0.00879   4.77608
    R3        4.50108   0.00000   0.00000   0.00369   0.00372   4.50480
    R4        4.65615   0.00001   0.00000   0.00395   0.00395   4.66011
    R5        4.56519   0.00001   0.00000   0.00283   0.00282   4.56801
    R6        4.56981   0.00002   0.00000   0.00499   0.00500   4.57481
    R7        5.06362   0.00000   0.00000   0.00324   0.00322   5.06684
    R8        5.82421  -0.00001   0.00000  -0.02176  -0.02180   5.80242
    R9        4.47614   0.00001   0.00000   0.00139   0.00140   4.47754
   R10        4.50108   0.00000   0.00000  -0.00151  -0.00150   4.49958
   R11        5.19088   0.00001   0.00000   0.00092   0.00092   5.19180
   R12        5.16397  -0.00001   0.00000  -0.00750  -0.00752   5.15644
   R13        4.56774   0.00000   0.00000  -0.00172  -0.00171   4.56602
   R14        4.51656   0.00000   0.00000  -0.00057  -0.00055   4.51600
   R15        4.63974  -0.00001   0.00000  -0.00455  -0.00454   4.63520
   R16        4.75763   0.00000   0.00000   0.00352   0.00350   4.76114
   R17        4.54229   0.00000   0.00000  -0.00265  -0.00264   4.53965
   R18        4.50218  -0.00001   0.00000  -0.00186  -0.00185   4.50033
    A1        1.88522  -0.00001   0.00000  -0.00766  -0.00765   1.87757
    A2        1.37997   0.00001   0.00000   0.00397   0.00394   1.38391
    A3        1.85476   0.00000   0.00000   0.00214   0.00213   1.85689
    A4        2.10275   0.00001   0.00000   0.00490   0.00489   2.10764
    A5        1.61949   0.00000   0.00000   0.00617   0.00615   1.62564
    A6        1.76518   0.00001   0.00000   0.00570   0.00569   1.77087
    A7        1.93082   0.00000   0.00000  -0.00386  -0.00389   1.92693
    A8        1.93220   0.00000   0.00000  -0.00529  -0.00529   1.92690
    A9        1.89246   0.00001   0.00000   0.00440   0.00438   1.89683
   A10        1.90790   0.00000   0.00000  -0.00110  -0.00110   1.90681
   A11        1.20607   0.00000   0.00000  -0.00076  -0.00075   1.20532
   A12        1.19248   0.00001   0.00000   0.00528   0.00527   1.19775
   A13        1.91987   0.00001   0.00000   0.00057   0.00053   1.92040
   A14        1.94140   0.00001   0.00000   0.00431   0.00428   1.94568
   A15        1.89714   0.00000   0.00000  -0.00306  -0.00309   1.89406
   A16        2.09909   0.00000   0.00000  -0.00234  -0.00239   2.09671
   A17        1.77242   0.00000   0.00000   0.00556   0.00556   1.77798
   A18        1.54743   0.00001   0.00000   0.00897   0.00899   1.55641
   A19        1.74526   0.00000   0.00000   0.00225   0.00223   1.74749
   A20        1.89818   0.00000   0.00000   0.00049   0.00049   1.89867
   A21        1.31639  -0.00001   0.00000  -0.01103  -0.01102   1.30538
   A22        1.52760  -0.00001   0.00000  -0.00004  -0.00003   1.52757
   A23        1.82873  -0.00002   0.00000  -0.00696  -0.00696   1.82177
   A24        2.38922   0.00000   0.00000   0.00302   0.00295   2.39217
   A25        1.92697   0.00001   0.00000   0.00453   0.00450   1.93147
   A26        1.36002  -0.00001   0.00000  -0.01100  -0.01099   1.34903
   A27        1.90480  -0.00001   0.00000  -0.00353  -0.00355   1.90125
   A28        2.43254  -0.00001   0.00000  -0.00082  -0.00084   2.43170
   A29        1.39741   0.00000   0.00000  -0.00142  -0.00142   1.39600
   A30        1.51953   0.00001   0.00000   0.00458   0.00457   1.52410
   A31        1.35688   0.00001   0.00000   0.00494   0.00491   1.36179
    D1       -0.58861   0.00000   0.00000   0.00158   0.00159  -0.58702
    D2        0.47028   0.00000   0.00000   0.00155   0.00156   0.47184
    D3       -1.55383   0.00000   0.00000   0.00036   0.00037  -1.55346
    D4       -0.25239   0.00000   0.00000  -0.00249  -0.00249  -0.25489
    D5        0.23171   0.00001   0.00000   0.01454   0.01454   0.24625
    D6       -0.63111   0.00001   0.00000   0.00776   0.00777  -0.62334
    D7       -1.50954   0.00001   0.00000   0.00413   0.00414  -1.50540
    D8        0.84842   0.00000   0.00000   0.00488   0.00487   0.85329
    D9        1.51451  -0.00001   0.00000  -0.01020  -0.01021   1.50429
   D10       -0.90214   0.00000   0.00000  -0.00625  -0.00625  -0.90838
   D11        0.30720  -0.00001   0.00000  -0.00435  -0.00432   0.30289
   D12        0.95429   0.00001   0.00000   0.00353   0.00353   0.95782
   D13        0.02425  -0.00001   0.00000  -0.00801  -0.00802   0.01623
   D14       -1.27999   0.00001   0.00000   0.00346   0.00343  -1.27656
   D15       -0.32991   0.00000   0.00000  -0.00005  -0.00005  -0.32995
   D16        0.60455   0.00000   0.00000   0.00351   0.00351   0.60806
   D17        1.52666   0.00000   0.00000   0.00789   0.00784   1.53451
   D18       -0.99377   0.00000   0.00000   0.00552   0.00556  -0.98821
   D19        0.01610   0.00000   0.00000   0.00755   0.00752   0.02363
   D20       -0.34629   0.00001   0.00000   0.01163   0.01166  -0.33463
   D21        0.66358   0.00001   0.00000   0.01366   0.01362   0.67720
   D22       -1.32809   0.00000   0.00000  -0.00054  -0.00053  -1.32862
   D23       -0.01742   0.00000   0.00000  -0.00819  -0.00818  -0.02560
   D24       -0.67727   0.00000   0.00000  -0.00748  -0.00749  -0.68476
   D25       -0.87123  -0.00001   0.00000  -0.00654  -0.00655  -0.87778
   D26        0.89150   0.00000   0.00000  -0.00315  -0.00316   0.88834
   D27       -0.01756   0.00000   0.00000  -0.00823  -0.00821  -0.02577
   D28        0.90951  -0.00002   0.00000  -0.01738  -0.01742   0.89209
   D29       -1.50300   0.00001   0.00000   0.00661   0.00663  -1.49638
   D30        0.15875   0.00000   0.00000  -0.00603  -0.00602   0.15273
   D31        1.94244   0.00000   0.00000   0.00127   0.00127   1.94371
   D32        0.85793   0.00000   0.00000   0.00522   0.00521   0.86314
   D33        1.10258   0.00000   0.00000   0.00456   0.00456   1.10714
   D34        0.01807   0.00000   0.00000   0.00851   0.00850   0.02657
   D35        0.06878   0.00000   0.00000   0.00709   0.00710   0.07588
   D36       -1.01573   0.00001   0.00000   0.01105   0.01104  -1.00469
         Item               Value     Threshold  Converged?
 Maximum Force            0.000021     0.000450     YES
 RMS     Force            0.000008     0.000300     YES
 Maximum Displacement     0.017443     0.001800     NO 
 RMS     Displacement     0.005271     0.001200     NO 
 Predicted change in Energy=-1.649391D-06
 GradGradGradGradGradGradGradGradGradGradGradGradGradGradGradGradGradGrad

 1\1\GINC-NODE34\Freq\UB3LYP\6-311+G(d)\Si9(1-,2)\TAM\09-Nov-2010\0\\#N
  Geom=AllCheck Guess=Read SCRF=Check GenChk UB3LYP/6-311+G(d) Freq\\si
 9-an-doublet-01\\-1,2\Si,-0.8197292624,1.89191565,-1.1291893716\Si,-1.
 0038588643,-1.6478552216,1.2894967501\Si,1.4437562564,1.0397132302,-0.
 8798285424\Si,1.3193756716,-0.8896107836,0.9754977959\Si,-0.8717271891
 ,0.759361673,1.1348478142\Si,-0.4531694081,-1.3679882615,-1.0485155793
 \Si,1.9291690601,-1.2329369133,-1.3381263164\Si,1.4623055147,1.4449426
 579,1.4672404241\Si,-2.329623779,0.0791059689,-0.8017109745\\Version=A
 M64L-G03RevE.01\State=2-A\HF=-2605.6520892\S2=0.757092\S2-1=0.\S2A=0.7
 50034\RMSD=2.031e-09\RMSF=2.204e-05\ZeroPoint=0.0130182\Thermal=0.0257
 995\Dipole=0.1148932,-0.0083934,-0.1645056\DipoleDeriv=-0.1193628,-0.0
 388477,0.0365839,0.0830905,-0.1588966,0.0569768,-0.0101354,0.0088839,-
 0.1048193,-0.0975141,0.0768362,-0.0832958,-0.0613072,-0.1018811,0.0400
 204,-0.0025666,0.0367389,-0.091916,-0.2496217,-0.0017567,0.0285539,-0.
 1913773,-0.1214103,0.0815731,0.1085228,0.0464674,-0.1348933,-0.1778283
 ,-0.0199432,0.0404375,0.0244521,-0.2221817,0.0194262,-0.0663554,0.0739
 348,-0.1489609,-0.218464,0.1072806,0.0439512,0.1322644,-0.1167824,-0.0
 387842,0.0655404,0.0245559,-0.2347774,-0.0766313,-0.0682167,-0.0936241
 ,-0.0600448,-0.1957069,-0.0534689,-0.008274,-0.0778411,-0.1289797,-0.0
 778831,0.019322,0.0340573,0.0446096,-0.014333,-0.0173281,-0.0463327,-0
 .0042986,-0.0980287,-0.0570065,-0.0776999,-0.0439064,0.0327496,-0.0652
 316,-0.0073313,-0.03484,-0.0535297,-0.0358037,0.0743118,0.0030254,0.03
 72424,-0.0044369,-0.0035764,-0.0810839,-0.0055591,-0.0549114,-0.021821
 3\Polar=344.635079,1.4525836,327.6889618,1.1047138,0.324238,297.730275
 4\PG=C01 [X(Si9)]\NImag=0\\0.07180537,0.00299973,0.06085361,0.00317300
 ,-0.02343233,0.03743996,-0.00672204,0.00782905,0.00049578,0.04923010,-
 0.00005039,-0.00402771,-0.00144334,0.02785773,0.07630751,0.00415568,0.
 00218776,-0.00395844,-0.02356832,-0.02571677,0.06653031,-0.04008396,0.
 01593363,-0.00452558,-0.00153802,-0.00386523,0.00182557,0.06600453,0.0
 1839185,-0.01104115,-0.00054159,-0.00800296,-0.00365085,0.00217865,-0.
 01959377,0.08889923,-0.00551951,-0.00126141,-0.00307474,0.00452025,0.0
 0589067,-0.00056387,0.00196519,0.01003688,0.08748042,-0.00048715,0.000
 45530,-0.00278358,-0.03089056,-0.01073069,0.00565875,-0.00776342,0.000
 65730,-0.00136005,0.07164558,0.00565742,-0.00685219,0.00475881,-0.0152
 5117,-0.00813425,0.00368134,-0.00363248,-0.00762218,0.01537557,0.00440
 682,0.08826429,-0.00541304,0.00448513,-0.00375540,0.00779135,0.0033872
 0,-0.00494217,-0.00043769,0.01632200,-0.00471222,-0.00315275,0.0045840
 6,0.08296932,0.00305650,0.00312380,-0.00132996,-0.00185151,-0.00902344
 ,-0.00118544,-0.00196385,-0.00084375,0.00734491,-0.00675391,0.00972335
 ,-0.00153795,0.06227856,0.00220467,-0.00674822,0.01400425,-0.00217948,
 -0.05012049,0.00485564,0.00416046,-0.00347833,-0.00336341,0.01166248,-
 0.00004034,-0.00131569,0.00677048,0.07103264,0.00145872,0.01284209,-0.
 02384518,-0.00066383,0.00771993,-0.00468759,0.00623516,0.00065660,0.00
 071774,0.00138719,0.00011950,-0.00827021,0.01416842,0.00349461,0.06346
 376,0.00450228,0.00140539,-0.00087308,-0.00541414,-0.00423635,0.013963
 71,0.00340749,-0.00641027,0.00037273,-0.00652534,0.00532930,-0.0097431
 4,-0.00164411,-0.00080412,-0.00220246,0.10790182,0.00012910,-0.0021590
 4,-0.00399330,-0.00138296,-0.00598077,0.00980598,-0.00894410,0.0007947
 7,0.00125185,-0.00061048,-0.00312308,-0.00310527,0.00240715,-0.0032474
 8,-0.00983315,-0.02339576,0.04077294,-0.00387616,0.00280952,0.00309851
 ,0.00846975,0.00888853,-0.04908308,0.00045623,-0.00122295,-0.00790422,
 -0.01398666,-0.00471024,-0.00578350,0.00555497,-0.00585861,-0.00065681
 ,-0.01311769,0.00588047,0.07179766,-0.00099703,0.00019369,0.00187129,-
 0.00231957,0.00173508,0.00004759,-0.00912483,0.01428960,-0.00047314,-0
 .00845958,0.00043784,0.01021598,-0.00447924,0.00175969,0.00542215,-0.0
 5372288,0.00506589,0.01393829,0.08157106,0.00202916,-0.00184554,-0.001
 05308,-0.00363708,-0.00013609,0.00268438,0.01857890,-0.05390533,-0.018
 09435,-0.00029005,-0.00840941,-0.00634918,0.00228834,-0.00363304,-0.00
 388288,0.00115527,-0.00275437,0.00437268,-0.02151464,0.07459222,-0.000
 02611,0.00178948,0.00077875,0.00201209,-0.00343558,-0.00286069,0.00043
 060,-0.01084974,-0.00881294,0.01793145,-0.01320481,-0.04833324,0.00423
 526,-0.00371061,-0.00388956,0.00410825,0.00337713,-0.00261704,-0.02873
 738,0.02521763,0.07057623,-0.00095902,-0.00337091,-0.00055960,-0.00308
 197,0.00060666,-0.00116695,-0.00167277,0.00340072,-0.00252513,-0.00564
 657,-0.00364493,0.00250678,-0.03569708,-0.01915329,-0.01101831,-0.0022
 9084,-0.00301353,-0.00322706,-0.00036674,0.00337385,0.00281221,0.05363
 238,-0.00188978,0.00097433,0.00369619,-0.00129458,-0.00259761,-0.00157
 080,0.00120314,-0.00793325,-0.00892985,-0.00971991,-0.05496563,-0.0190
 4711,-0.00872602,-0.00377303,-0.00094004,-0.00383899,-0.00565126,-0.00
 592023,-0.00258266,-0.00248393,0.00019070,0.02215594,0.07959938,0.0008
 7592,0.00062056,-0.00257093,0.00104722,0.00317523,0.00003087,-0.006887
 71,-0.01920792,-0.06303776,0.00143125,-0.01001622,-0.00846965,-0.01094
 374,-0.00107204,-0.00124278,-0.00098176,-0.00375757,-0.00484157,-0.002
 35919,-0.00192415,-0.00335147,0.01315706,0.03363503,0.08260800,-0.0301
 1495,-0.02856969,0.00453173,0.00258770,-0.00229337,0.00026941,-0.00726
 517,-0.00188872,-0.00432525,-0.00511904,-0.00302614,-0.00022954,-0.012
 94537,-0.00442089,-0.01478704,-0.04621428,0.02974469,0.00578833,-0.002
 10118,-0.00198375,-0.00276637,-0.00391740,0.00469287,0.00466093,0.1050
 8969,-0.02947175,-0.02915410,0.00800439,-0.00393854,-0.00165973,0.0018
 9383,-0.00384054,-0.00206292,-0.00090595,0.00416923,0.00088280,0.00103
 886,-0.00571990,0.00000829,-0.01017665,0.03079553,-0.01865171,-0.00423
 917,0.00061550,-0.00142450,0.00062580,-0.00035451,-0.00316900,-0.00145
 292,0.00774499,0.05523087,0.00517148,-0.00004079,-0.00411254,-0.000104
 30,0.00153414,-0.00046533,0.00093824,0.00262808,-0.00009241,-0.0051256
 0,-0.00058801,0.00129708,-0.01630647,-0.00703413,-0.02158936,0.0084734
 4,0.00037386,-0.00400995,0.00007441,-0.00097107,-0.00149003,0.00002101
 ,-0.00111388,0.00087531,0.00685779,0.00521180,0.02958724\\0.00000457,0
 .00000497,-0.00000340,0.00002560,-0.00000660,-0.00003765,0.00002657,0.
 00000658,0.00000545,0.00000032,0.00000413,0.00002241,-0.00003784,-0.00
 006875,0.00000026,-0.00000714,0.00001129,0.00002110,-0.00000098,0.0000
 1678,0.00000620,-0.00000464,0.00000179,0.00002003,-0.00000646,0.000029
 80,-0.00003441\\\@


 YOU KNOW YOU'VE SPOKEN TOO LONG WHEN THE AUDIENCE STOPS LOOKING AT
 THEIR WATCHES AND STARTS SHAKING THEM.
 Job cpu time:  0 days  1 hours 41 minutes 12.4 seconds.
 File lengths (MBytes):  RWF=    276 Int=      0 D2E=      0 Chk=     11 Scr=      1
 Normal termination of Gaussian 03 at Tue Nov  9 15:37:02 2010.
