#INFO: **** input file is /home/ltkoanh/Al_B2LYP_6311_Gd_Cluster/Cluster/Al8-cation-doublet/input.py ****
import numpy
from pyscf import gto, scf, dft, mp, cc
from pyscf.mp import uobmp2_mom_conv, dfuobmp2_mom_conv, uhf_mom
from pyscf.mp import  mp2, ump2
from pyscf.tools import molden
import os
from functools import reduce


mol = gto.Mole()
geom = os.environ.get('geom_txt')
mol.atom = geom
mol.basis = os.environ.get('basis', 'cc-pvdz')
mol.unit = 'A'
mol.charge = int(os.environ.get('charge', 0))
mol.spin = int(os.environ.get('spin', 0))
mol.verbose = 4
mol.build()

#################### Ground state using density fitting
### Hartree-Fock
a  = scf.UHF(mol).density_fit()
a.kernel()

### Ground state OBMP2 calculation
ob = dfuobmp2_mom_conv.DFUOBMP2(a)
ob.second_order = True
ob.thresh = 10e-6
ob.css = 1
ob.cos = 1
e_obmp2g = ob.kernel()

### Ground state O2BMP2 calculation
ob = dfuobmp2_mom_conv.DFUOBMP2(a)
ob.second_order = True
ob.thresh = 10e-6
ob.css = 0                             
ob.cos = 1.2                             
e_o2bmp2g = ob.kernel()  

#################### Ground state NOT using density fitting
### Hartree-Fock
a  = scf.UHF(mol)
a.kernel()

### Ground state OBMP2 calculation
ob = uobmp2_mom_conv.UOBMP2(a)
ob.second_order = True
ob.thresh = 10e-6
ob.css = 1
ob.cos = 1
#e_obmp2g = ob.kernel()

### Ground state O2BMP2 calculation
ob = uobmp2_mom_conv.UOBMP2(a)
ob.second_order = True
ob.thresh = 10e-6
ob.css = 0
ob.cos = 1.2   ## the cos can be vary ...                        	 
#e_o2bmp2g = ob.kernel()


## Results from density-fitting approximate with non-using density fitting 
## check results between df and non-df with small molecules before running the important molecules
#INFO: ******************** input file end ********************


System: uname_result(system='Linux', node='comphys', release='3.10.0-1160.119.1.el7.x86_64', version='#1 SMP Tue Jun 4 14:43:51 UTC 2024', machine='x86_64', processor='x86_64')  Threads 8
Python 3.7.9 (default, Dec  4 2023, 13:00:18) 
[GCC 4.8.5 20150623 (Red Hat 4.8.5-44)]
numpy 1.21.6  scipy 1.7.3
Date: Sun May 25 19:09:46 2025
PySCF version 1.7.0
PySCF path  /share/installs/pyscf/pyscf
GIT HEAD      ref: refs/heads/ob-mp2
GIT ob-mp2 branch  f0fc63383ab6c719c0c91f5e07a6895c637b700d

[CONFIG] conf_file None
[INPUT] verbose = 4
[INPUT] num. atoms = 8
[INPUT] num. electrons = 35
[INPUT] charge = 1
[INPUT] spin (= nelec alpha-beta = 2S) = 1
[INPUT] symmetry False subgroup None
[INPUT] Mole.unit = A
[INPUT]  1 H      2.018292000000  -0.554413000000   0.000000000000 AA    3.814019119401  -1.047688729898   0.000000000000 Bohr
[INPUT]  2 He    -1.747899000000   0.252838000000   0.000000000000 AA   -3.303050403401   0.477794573883   0.000000000000 Bohr
[INPUT]  3 Li     0.233905000000  -1.479244000000   1.683380000000 AA    0.442016389166  -2.795366031406   3.181127163570 Bohr
[INPUT]  4 Be     0.233905000000  -1.479244000000  -1.683380000000 AA    0.442016389166  -2.795366031406  -3.181127163570 Bohr
[INPUT]  5 B      0.233905000000   1.086641000000  -1.478847000000 AA    0.442016389166   2.053453885724  -2.794615810135 Bohr
[INPUT]  6 C      0.233905000000   1.086641000000   1.478847000000 AA    0.442016389166   2.053453885724   2.794615810135 Bohr
[INPUT]  7 N     -1.533250000000  -2.350691000000   0.000000000000 AA   -2.897422580489  -4.442162193480   0.000000000000 Bohr
[INPUT]  8 O      0.327239000000   3.437472000000   0.000000000000 AA    0.618392087277   6.495880640861   0.000000000000 Bohr

nuclear repulsion = 84.8594458537909
number of shells = 20
number of NR pGTOs = 192
number of NR cGTOs = 32
basis = sto-6g
ecp = {}
CPU time:         1.50


******** <class 'pyscf.df.df_jk.density_fit.<locals>.DFHF'> ********
method = DFHF-UHF
initial guess = minao
damping factor = 0
level_shift factor = 0
DIIS = <class 'pyscf.scf.diis.CDIIS'>
diis_start_cycle = 1
diis_space = 8
SCF conv_tol = 1e-09
SCF conv_tol_grad = None
SCF max_cycles = 50
direct_scf = True
direct_scf_tol = 1e-13
chkfile to save SCF result = /home/ltkoanh/Al_B2LYP_6311_Gd_Cluster/Cluster/Al8-cation-doublet/tmpcllk1bnq
max_memory 4000 MB (current use 60 MB)
number electrons alpha = 18  beta = 17
Set gradient conv threshold to 3.16228e-05
******** <class 'pyscf.df.df.DF'> ********
auxbasis = None
max_memory = 4000
_cderi_to_save = /home/ltkoanh/Al_B2LYP_6311_Gd_Cluster/Cluster/Al8-cation-doublet/tmpn7ebvba0
Even tempered Gaussians are generated as DF auxbasis for  O He B N Be Li H C
init E= -214.188034721431
  alpha nocc = 18  HOMO = -0.144262615821705  LUMO = -0.116752647007379
  beta  nocc = 17  HOMO = -0.166958401245386  LUMO = -0.144262615821705

WARN: system HOMO -0.144262615821705 >= system LUMO -0.144262615821705

cycle= 1 E= -213.7012851709  delta_E= 0.487  |g|= 0.485  |ddm|= 2.12
  alpha nocc = 18  HOMO = -0.306761419600832  LUMO = -0.215304160942647
  beta  nocc = 17  HOMO = -0.306090688581584  LUMO = -0.211118945653408
cycle= 2 E= -206.421788505626  delta_E= 7.28  |g|= 1.61  |ddm|= 3.63
  alpha nocc = 18  HOMO = -0.346385319345499  LUMO = -0.21693566410678
  beta  nocc = 17  HOMO = -0.343680791870109  LUMO = -0.212375530086642
cycle= 3 E= -207.564230589126  delta_E= -1.14  |g|= 1.01  |ddm|= 0.757
  alpha nocc = 18  HOMO = -0.271347337282982  LUMO = -0.207314648212976
  beta  nocc = 17  HOMO = -0.271282298879251  LUMO = -0.207190644048439
cycle= 4 E= -214.693903468854  delta_E= -7.13  |g|= 0.622  |ddm|= 3.23
  alpha nocc = 18  HOMO = -0.344571297048218  LUMO = -0.17057900069503
  beta  nocc = 17  HOMO = -0.341258542409669  LUMO = -0.166788871364497
cycle= 5 E= -214.014646251531  delta_E= 0.679  |g|= 0.593  |ddm|= 0.784
  alpha nocc = 18  HOMO = -0.314795791242081  LUMO = -0.178086084603326
  beta  nocc = 17  HOMO = -0.309830131171399  LUMO = -0.172504204356163
cycle= 6 E= -213.882500676327  delta_E= 0.132  |g|= 0.53  |ddm|= 0.214
  alpha nocc = 18  HOMO = -0.347979044758234  LUMO = -0.206099432831026
  beta  nocc = 17  HOMO = -0.346401565549226  LUMO = -0.203925767991747
cycle= 7 E= -214.250417883236  delta_E= -0.368  |g|= 0.677  |ddm|= 0.504
  alpha nocc = 18  HOMO = -0.345627143512624  LUMO = -0.240077304304561
  beta  nocc = 17  HOMO = -0.34258315327159  LUMO = -0.237877081108747
cycle= 8 E= -214.629445349429  delta_E= -0.379  |g|= 0.67  |ddm|= 0.456
  alpha nocc = 18  HOMO = -0.333305873614737  LUMO = -0.186960184410156
  beta  nocc = 17  HOMO = -0.330348424996749  LUMO = -0.174150129037442
cycle= 9 E= -215.128933931837  delta_E= -0.499  |g|= 0.433  |ddm|= 0.674
  alpha nocc = 18  HOMO = -0.359081076412997  LUMO = -0.156593994337176
  beta  nocc = 17  HOMO = -0.359630411125027  LUMO = -0.13828049977634
cycle= 10 E= -215.372351367108  delta_E= -0.243  |g|= 0.225  |ddm|= 0.683
  alpha nocc = 18  HOMO = -0.359911275843965  LUMO = -0.136046834136589
  beta  nocc = 17  HOMO = -0.366883785272757  LUMO = -0.106463436776756
cycle= 11 E= -215.47765012044  delta_E= -0.105  |g|= 0.0572  |ddm|= 0.701
  alpha nocc = 18  HOMO = -0.37021838147086  LUMO = -0.125123907034759
  beta  nocc = 17  HOMO = -0.381586920644157  LUMO = -0.103307149263441
cycle= 12 E= -215.488378272213  delta_E= -0.0107  |g|= 0.0378  |ddm|= 0.185
  alpha nocc = 18  HOMO = -0.36582390823788  LUMO = -0.121457607127347
  beta  nocc = 17  HOMO = -0.375587986264469  LUMO = -0.103805206754594
cycle= 13 E= -215.49542807746  delta_E= -0.00705  |g|= 0.0392  |ddm|= 0.147
  alpha nocc = 18  HOMO = -0.364484268365025  LUMO = -0.12131881247936
  beta  nocc = 17  HOMO = -0.374733769821526  LUMO = -0.102907831986637
cycle= 14 E= -215.494643866841  delta_E= 0.000784  |g|= 0.0387  |ddm|= 0.017
  alpha nocc = 18  HOMO = -0.363344982156208  LUMO = -0.123149410898634
  beta  nocc = 17  HOMO = -0.375835627032304  LUMO = -0.102406793137619
cycle= 15 E= -215.488578608202  delta_E= 0.00607  |g|= 0.0315  |ddm|= 0.151
  alpha nocc = 18  HOMO = -0.36109006388022  LUMO = -0.121554904973322
  beta  nocc = 17  HOMO = -0.373069466048019  LUMO = -0.103100312579049
cycle= 16 E= -215.487420791328  delta_E= 0.00116  |g|= 0.0269  |ddm|= 0.176
  alpha nocc = 18  HOMO = -0.360822858707874  LUMO = -0.122107621036283
  beta  nocc = 17  HOMO = -0.372827307397216  LUMO = -0.10282971118784
cycle= 17 E= -215.486721202297  delta_E= 0.0007  |g|= 0.0264  |ddm|= 0.0208
  alpha nocc = 18  HOMO = -0.357826160557387  LUMO = -0.129944683377109
  beta  nocc = 17  HOMO = -0.377000052146925  LUMO = -0.093578952013522
cycle= 18 E= -215.478205418334  delta_E= 0.00852  |g|= 0.0147  |ddm|=  0.4
  alpha nocc = 18  HOMO = -0.354026739055983  LUMO = -0.135938758878556
  beta  nocc = 17  HOMO = -0.373822913076541  LUMO = -0.104467558356501
cycle= 19 E= -215.479365970554  delta_E= -0.00116  |g|= 0.012  |ddm|= 0.0727
  alpha nocc = 18  HOMO = -0.354109052249901  LUMO = -0.135498336550081
  beta  nocc = 17  HOMO = -0.375576183451313  LUMO = -0.106925681392284
cycle= 20 E= -215.480099255718  delta_E= -0.000733  |g|= 0.0111  |ddm|= 0.0757
  alpha nocc = 18  HOMO = -0.353704410760203  LUMO = -0.135575883466335
  beta  nocc = 17  HOMO = -0.375912234978911  LUMO = -0.106651091646545
cycle= 21 E= -215.480215356863  delta_E= -0.000116  |g|= 0.0112  |ddm|= 0.00867
  alpha nocc = 18  HOMO = -0.354993055252841  LUMO = -0.135184225839564
  beta  nocc = 17  HOMO = -0.374770326403749  LUMO = -0.105747744325824
cycle= 22 E= -215.479694992903  delta_E= 0.00052  |g|= 0.0102  |ddm|= 0.0383
  alpha nocc = 18  HOMO = -0.356625798000645  LUMO = -0.136297150843813
  beta  nocc = 17  HOMO = -0.372634287755441  LUMO = -0.106423587532819
cycle= 23 E= -215.47963421492  delta_E= 6.08e-05  |g|= 0.00879  |ddm|= 0.0611
  alpha nocc = 18  HOMO = -0.35808563696297  LUMO = -0.135603779588558
  beta  nocc = 17  HOMO = -0.372879963523646  LUMO = -0.104552960964788
cycle= 24 E= -215.479897371112  delta_E= -0.000263  |g|= 0.00794  |ddm|= 0.0484
  alpha nocc = 18  HOMO = -0.358230716662719  LUMO = -0.136438424663548
  beta  nocc = 17  HOMO = -0.374347331879152  LUMO = -0.102652767015876
cycle= 25 E= -215.480354035412  delta_E= -0.000457  |g|= 0.00768  |ddm|= 0.0529
  alpha nocc = 18  HOMO = -0.35755648671924  LUMO = -0.136937671965919
  beta  nocc = 17  HOMO = -0.374713404047393  LUMO = -0.102665833145246
cycle= 26 E= -215.480579931842  delta_E= -0.000226  |g|= 0.00779  |ddm|= 0.0218
  alpha nocc = 18  HOMO = -0.358205333461499  LUMO = -0.137371939250546
  beta  nocc = 17  HOMO = -0.373495717103524  LUMO = -0.102646646162399
cycle= 27 E= -215.480416857221  delta_E= 0.000163  |g|= 0.00747  |ddm|= 0.0225
  alpha nocc = 18  HOMO = -0.35987419457087  LUMO = -0.138344328281298
  beta  nocc = 17  HOMO = -0.372880971875651  LUMO = -0.102744550718221
cycle= 28 E= -215.480677404172  delta_E= -0.000261  |g|= 0.00727  |ddm|= 0.0407
  alpha nocc = 18  HOMO = -0.359852137809747  LUMO = -0.138229192061746
  beta  nocc = 17  HOMO = -0.37288424575036  LUMO = -0.102687041989334
cycle= 29 E= -215.480736570334  delta_E= -5.92e-05  |g|= 0.00731  |ddm|= 0.00622
  alpha nocc = 18  HOMO = -0.360052478298115  LUMO = -0.138387308174605
  beta  nocc = 17  HOMO = -0.372748520304683  LUMO = -0.102603982388382
cycle= 30 E= -215.480664090128  delta_E= 7.25e-05  |g|= 0.00719  |ddm|= 0.0103
  alpha nocc = 18  HOMO = -0.360483468955977  LUMO = -0.138524995184368
  beta  nocc = 17  HOMO = -0.372809376800203  LUMO = -0.102504474665305
cycle= 31 E= -215.480698913507  delta_E= -3.48e-05  |g|= 0.00704  |ddm|= 0.0191
  alpha nocc = 18  HOMO = -0.360342753307539  LUMO = -0.138770086493945
  beta  nocc = 17  HOMO = -0.373004971792296  LUMO = -0.102517580276334
cycle= 32 E= -215.480810781136  delta_E= -0.000112  |g|= 0.00699  |ddm|= 0.0182
  alpha nocc = 18  HOMO = -0.360312706536373  LUMO = -0.138730480055477
  beta  nocc = 17  HOMO = -0.373026701630618  LUMO = -0.102537797945395
cycle= 33 E= -215.480835703496  delta_E= -2.49e-05  |g|= 0.00702  |ddm|= 0.00535
  alpha nocc = 18  HOMO = -0.360022011064658  LUMO = -0.138969539610747
  beta  nocc = 17  HOMO = -0.373358809771444  LUMO = -0.102425523135031
cycle= 34 E= -215.480833604179  delta_E= 2.1e-06  |g|= 0.00689  |ddm|= 0.0121
  alpha nocc = 18  HOMO = -0.359288668263813  LUMO = -0.139208258808815
  beta  nocc = 17  HOMO = -0.374666222656041  LUMO = -0.102311853847473
cycle= 35 E= -215.48104766537  delta_E= -0.000214  |g|= 0.00674  |ddm|= 0.0332
  alpha nocc = 18  HOMO = -0.358741136604832  LUMO = -0.139215695966217
  beta  nocc = 17  HOMO = -0.375236033015941  LUMO = -0.102299466145205
cycle= 36 E= -215.481140758592  delta_E= -9.31e-05  |g|= 0.00677  |ddm|= 0.0126
  alpha nocc = 18  HOMO = -0.359406640410231  LUMO = -0.139628771525187
  beta  nocc = 17  HOMO = -0.374747066762294  LUMO = -0.102316343605519
cycle= 37 E= -215.48114116091  delta_E= -4.02e-07  |g|= 0.00666  |ddm|= 0.0149
  alpha nocc = 18  HOMO = -0.360056456609839  LUMO = -0.140064485539154
  beta  nocc = 17  HOMO = -0.374314634437632  LUMO = -0.102177178379058
cycle= 38 E= -215.481339995927  delta_E= -0.000199  |g|= 0.00661  |ddm|= 0.035
  alpha nocc = 18  HOMO = -0.359860764558951  LUMO = -0.13997469510853
  beta  nocc = 17  HOMO = -0.374492711496627  LUMO = -0.102047186431358
cycle= 39 E= -215.481393186369  delta_E= -5.32e-05  |g|= 0.00669  |ddm|= 0.0082
  alpha nocc = 18  HOMO = -0.360402055538728  LUMO = -0.13995645710271
  beta  nocc = 17  HOMO = -0.374291279192685  LUMO = -0.102267714062429
cycle= 40 E= -215.481375150014  delta_E= 1.8e-05  |g|= 0.00658  |ddm|= 0.0229
  alpha nocc = 18  HOMO = -0.360445158350216  LUMO = -0.139857955535808
  beta  nocc = 17  HOMO = -0.374122018836661  LUMO = -0.102275166571689
cycle= 41 E= -215.481329860356  delta_E= 4.53e-05  |g|= 0.00653  |ddm|= 0.0105
  alpha nocc = 18  HOMO = -0.360517799104032  LUMO = -0.139793203804111
  beta  nocc = 17  HOMO = -0.373844757334145  LUMO = -0.102368264059001
cycle= 42 E= -215.481317167548  delta_E= 1.27e-05  |g|= 0.00657  |ddm|= 0.0089
  alpha nocc = 18  HOMO = -0.360810055578414  LUMO = -0.139875909628135
  beta  nocc = 17  HOMO = -0.373578120199227  LUMO = -0.102269323058538
cycle= 43 E= -215.481261286976  delta_E= 5.59e-05  |g|= 0.00644  |ddm|= 0.0118
  alpha nocc = 18  HOMO = -0.360997771883454  LUMO = -0.139675752515152
  beta  nocc = 17  HOMO = -0.373200816827668  LUMO = -0.102220789633792
cycle= 44 E= -215.481290761963  delta_E= -2.95e-05  |g|= 0.00643  |ddm|= 0.00821
  alpha nocc = 18  HOMO = -0.360987096610568  LUMO = -0.139670374705675
  beta  nocc = 17  HOMO = -0.373225893727033  LUMO = -0.102226593422443
cycle= 45 E= -215.481305555113  delta_E= -1.48e-05  |g|= 0.00644  |ddm|= 0.00191
  alpha nocc = 18  HOMO = -0.360969591182081  LUMO = -0.139650132534526
  beta  nocc = 17  HOMO = -0.373224168031305  LUMO = -0.102229165844217
cycle= 46 E= -215.481296829068  delta_E= 8.73e-06  |g|= 0.00643  |ddm|= 0.00142
  alpha nocc = 18  HOMO = -0.360961770446167  LUMO = -0.139670542474461
  beta  nocc = 17  HOMO = -0.373259232407165  LUMO = -0.102187204496492
cycle= 47 E= -215.481339504917  delta_E= -4.27e-05  |g|= 0.00645  |ddm|= 0.00636
  alpha nocc = 18  HOMO = -0.361149339453919  LUMO = -0.139725333484479
  beta  nocc = 17  HOMO = -0.373034465142583  LUMO = -0.102201882118814
cycle= 48 E= -215.48125561876  delta_E= 8.39e-05  |g|= 0.00643  |ddm|= 0.0125
  alpha nocc = 18  HOMO = -0.36115267892155  LUMO = -0.139713434156941
  beta  nocc = 17  HOMO = -0.373015661451621  LUMO = -0.102164716445127
cycle= 49 E= -215.481252146304  delta_E= 3.47e-06  |g|= 0.00643  |ddm|= 0.00235
  alpha nocc = 18  HOMO = -0.361332967074103  LUMO = -0.139675000033019
  beta  nocc = 17  HOMO = -0.372989137664473  LUMO = -0.102272892144254
cycle= 50 E= -215.481270249454  delta_E= -1.81e-05  |g|= 0.00641  |ddm|= 0.0106
SCF not converged.
SCF energy = -215.481270249454 after 50 cycles  <S^2> = 1.0490536  2S+1 = 2.2795207
shift = 0
thresh = 1e-05 
eri1 (528, 528)
eri1 (528, 528)
    CPU time for making amplitude: integral transform      0.04 sec, wall time      0.00 sec
shape (528, 448)
1st memory: 108.6 MiB
eri1 (528, 528)
eri1 (528, 528)
2nd memory: 106.4 MiB

========================
iter = 0  energy = -215.627993 energy diff = 215.627993
multiplicity <S^2> : Reference = 1.0490536 Response = 1.0496479 Projector = 1.0502422
eri1 (528, 528)
eri1 (528, 528)
    CPU time for making amplitude: integral transform      0.05 sec, wall time      0.00 sec
shape (528, 448)
1st memory: 110.8 MiB
eri1 (528, 528)
eri1 (528, 528)
2nd memory: 110.8 MiB

========================
iter = 1  energy = -215.633493 energy diff = 0.005500
multiplicity <S^2> : Reference = 1.0101825 Response = 1.011044 Projector = 1.0119055
eri1 (528, 528)
eri1 (528, 528)
    CPU time for making amplitude: integral transform      0.04 sec, wall time      0.00 sec
shape (528, 448)
1st memory: 110.9 MiB
eri1 (528, 528)
eri1 (528, 528)
2nd memory: 107.5 MiB

========================
iter = 2  energy = -215.635918 energy diff = 0.002424
multiplicity <S^2> : Reference = 0.9832123 Response = 0.98348728 Projector = 0.98376226
eri1 (528, 528)
eri1 (528, 528)
    CPU time for making amplitude: integral transform      0.04 sec, wall time      0.00 sec
shape (528, 448)
1st memory: 112.0 MiB
eri1 (528, 528)
eri1 (528, 528)
2nd memory: 107.4 MiB

========================
iter = 3  energy = -215.639241 energy diff = 0.003324
multiplicity <S^2> : Reference = 0.93709674 Response = 0.93711788 Projector = 0.93713902
eri1 (528, 528)
eri1 (528, 528)
    CPU time for making amplitude: integral transform      0.04 sec, wall time      0.00 sec
shape (528, 448)
1st memory: 113.3 MiB
eri1 (528, 528)
eri1 (528, 528)
2nd memory: 107.3 MiB

========================
iter = 4  energy = -215.640556 energy diff = 0.001315
multiplicity <S^2> : Reference = 0.91634955 Response = 0.91635548 Projector = 0.91636141
eri1 (528, 528)
eri1 (528, 528)
    CPU time for making amplitude: integral transform      0.04 sec, wall time      0.00 sec
shape (528, 448)
1st memory: 112.2 MiB
eri1 (528, 528)
eri1 (528, 528)
2nd memory: 107.2 MiB

========================
iter = 5  energy = -215.642220 energy diff = 0.001664
multiplicity <S^2> : Reference = 0.89859457 Response = 0.89860382 Projector = 0.89861307
eri1 (528, 528)
eri1 (528, 528)
    CPU time for making amplitude: integral transform      0.04 sec, wall time      0.00 sec
shape (528, 448)
1st memory: 110.7 MiB
eri1 (528, 528)
eri1 (528, 528)
2nd memory: 107.3 MiB

========================
iter = 6  energy = -215.643417 energy diff = 0.001197
multiplicity <S^2> : Reference = 0.90946976 Response = 0.90952851 Projector = 0.90958725
eri1 (528, 528)
eri1 (528, 528)
    CPU time for making amplitude: integral transform      0.04 sec, wall time      0.00 sec
shape (528, 448)
1st memory: 113.3 MiB
eri1 (528, 528)
eri1 (528, 528)
2nd memory: 106.7 MiB

========================
iter = 7  energy = -215.644257 energy diff = 0.000840
multiplicity <S^2> : Reference = 0.93126315 Response = 0.93124883 Projector = 0.93123451
eri1 (528, 528)
eri1 (528, 528)
    CPU time for making amplitude: integral transform      0.04 sec, wall time      0.00 sec
shape (528, 448)
1st memory: 113.1 MiB
eri1 (528, 528)
eri1 (528, 528)
2nd memory: 108.1 MiB

========================
iter = 8  energy = -215.644524 energy diff = 0.000267
multiplicity <S^2> : Reference = 0.93868707 Response = 0.93858463 Projector = 0.9384822
eri1 (528, 528)
eri1 (528, 528)
    CPU time for making amplitude: integral transform      0.04 sec, wall time      0.00 sec
shape (528, 448)
1st memory: 113.3 MiB
eri1 (528, 528)
eri1 (528, 528)
2nd memory: 107.1 MiB

========================
iter = 9  energy = -215.644613 energy diff = 0.000089
multiplicity <S^2> : Reference = 0.94114427 Response = 0.94109639 Projector = 0.9410485
eri1 (528, 528)
eri1 (528, 528)
    CPU time for making amplitude: integral transform      0.04 sec, wall time      0.00 sec
shape (528, 448)
1st memory: 110.7 MiB
eri1 (528, 528)
eri1 (528, 528)
2nd memory: 107.3 MiB

========================
iter = 10  energy = -215.644634 energy diff = 0.000021
multiplicity <S^2> : Reference = 0.94171455 Response = 0.94166697 Projector = 0.94161938
eri1 (528, 528)
eri1 (528, 528)
    CPU time for making amplitude: integral transform      0.04 sec, wall time      0.00 sec
shape (528, 448)
1st memory: 113.3 MiB
eri1 (528, 528)
eri1 (528, 528)
2nd memory: 108.0 MiB

========================
iter = 11  energy = -215.644651 energy diff = 0.000017
multiplicity <S^2> : Reference = 0.94217195 Response = 0.9421246 Projector = 0.94207726
eri1 (528, 528)
eri1 (528, 528)
    CPU time for making amplitude: integral transform      0.04 sec, wall time      0.00 sec
shape (528, 448)
1st memory: 111.5 MiB
eri1 (528, 528)
eri1 (528, 528)
2nd memory: 107.0 MiB

========================
iter = 12  energy = -215.642526 energy diff = 0.002125
multiplicity <S^2> : Reference = 0.87635453 Response = 0.87627215 Projector = 0.87618977
eri1 (528, 528)
eri1 (528, 528)
    CPU time for making amplitude: integral transform      0.04 sec, wall time      0.00 sec
shape (528, 448)
1st memory: 113.3 MiB
eri1 (528, 528)
eri1 (528, 528)
2nd memory: 106.8 MiB

========================
iter = 13  energy = -215.643049 energy diff = 0.000523
multiplicity <S^2> : Reference = 0.87511291 Response = 0.87500086 Projector = 0.87488881
eri1 (528, 528)
eri1 (528, 528)
    CPU time for making amplitude: integral transform      0.03 sec, wall time      0.00 sec
shape (528, 448)
1st memory: 111.2 MiB
eri1 (528, 528)
eri1 (528, 528)
2nd memory: 107.4 MiB

========================
iter = 14  energy = -215.645895 energy diff = 0.002846
multiplicity <S^2> : Reference = 0.90823589 Response = 0.90819269 Projector = 0.90814949
eri1 (528, 528)
eri1 (528, 528)
    CPU time for making amplitude: integral transform      0.03 sec, wall time      0.00 sec
shape (528, 448)
1st memory: 113.5 MiB
eri1 (528, 528)
eri1 (528, 528)
2nd memory: 107.1 MiB

========================
iter = 15  energy = -215.649704 energy diff = 0.003809
multiplicity <S^2> : Reference = 0.95896695 Response = 0.95923821 Projector = 0.95950947
eri1 (528, 528)
eri1 (528, 528)
    CPU time for making amplitude: integral transform      0.04 sec, wall time      0.00 sec
shape (528, 448)
1st memory: 111.1 MiB
eri1 (528, 528)
eri1 (528, 528)
2nd memory: 111.1 MiB

========================
iter = 16  energy = -215.653247 energy diff = 0.003543
multiplicity <S^2> : Reference = 1.006795 Response = 1.0070134 Projector = 1.0072318
eri1 (528, 528)
eri1 (528, 528)
    CPU time for making amplitude: integral transform      0.03 sec, wall time      0.00 sec
shape (528, 448)
1st memory: 113.6 MiB
eri1 (528, 528)
eri1 (528, 528)
2nd memory: 107.2 MiB

========================
iter = 17  energy = -215.657722 energy diff = 0.004475
multiplicity <S^2> : Reference = 1.0685183 Response = 1.0687588 Projector = 1.0689993
eri1 (528, 528)
eri1 (528, 528)
    CPU time for making amplitude: integral transform      0.04 sec, wall time      0.00 sec
shape (528, 448)
1st memory: 111.5 MiB
eri1 (528, 528)
eri1 (528, 528)
2nd memory: 111.5 MiB

========================
iter = 18  energy = -215.658420 energy diff = 0.000698
multiplicity <S^2> : Reference = 1.0782108 Response = 1.0784525 Projector = 1.0786941
eri1 (528, 528)
eri1 (528, 528)
    CPU time for making amplitude: integral transform      0.04 sec, wall time      0.00 sec
shape (528, 448)
1st memory: 113.2 MiB
eri1 (528, 528)
eri1 (528, 528)
2nd memory: 106.7 MiB

========================
iter = 19  energy = -215.658509 energy diff = 0.000089
multiplicity <S^2> : Reference = 1.0794403 Response = 1.0796821 Projector = 1.0799239
eri1 (528, 528)
eri1 (528, 528)
    CPU time for making amplitude: integral transform      0.05 sec, wall time      0.00 sec
shape (528, 448)
1st memory: 112.5 MiB
eri1 (528, 528)
eri1 (528, 528)
2nd memory: 107.1 MiB

========================
iter = 20  energy = -215.659176 energy diff = 0.000667
multiplicity <S^2> : Reference = 1.0885538 Response = 1.0887855 Projector = 1.0890171
eri1 (528, 528)
eri1 (528, 528)
    CPU time for making amplitude: integral transform      0.04 sec, wall time      0.00 sec
shape (528, 448)
1st memory: 113.7 MiB
eri1 (528, 528)
eri1 (528, 528)
2nd memory: 107.6 MiB

========================
iter = 21  energy = -215.659239 energy diff = 0.000062
multiplicity <S^2> : Reference = 1.0893742 Response = 1.089606 Projector = 1.0898377
eri1 (528, 528)
eri1 (528, 528)
    CPU time for making amplitude: integral transform      0.04 sec, wall time      0.00 sec
shape (528, 448)
1st memory: 111.9 MiB
eri1 (528, 528)
eri1 (528, 528)
2nd memory: 111.9 MiB

========================
iter = 22  energy = -215.659199 energy diff = 0.000040
multiplicity <S^2> : Reference = 1.088878 Response = 1.0891099 Projector = 1.0893417
eri1 (528, 528)
eri1 (528, 528)
    CPU time for making amplitude: integral transform      0.04 sec, wall time      0.00 sec
shape (528, 448)
1st memory: 113.5 MiB
eri1 (528, 528)
eri1 (528, 528)
2nd memory: 107.6 MiB

========================
iter = 23  energy = -215.657822 energy diff = 0.001377
multiplicity <S^2> : Reference = 1.0721284 Response = 1.0723403 Projector = 1.0725523
eri1 (528, 528)
eri1 (528, 528)
    CPU time for making amplitude: integral transform      0.04 sec, wall time      0.00 sec
shape (528, 448)
1st memory: 112.0 MiB
eri1 (528, 528)
eri1 (528, 528)
2nd memory: 112.2 MiB

========================
iter = 24  energy = -215.658640 energy diff = 0.000818
multiplicity <S^2> : Reference = 1.0834049 Response = 1.0836106 Projector = 1.0838164
eri1 (528, 528)
eri1 (528, 528)
    CPU time for making amplitude: integral transform      0.04 sec, wall time      0.00 sec
shape (528, 448)
1st memory: 113.7 MiB
eri1 (528, 528)
eri1 (528, 528)
2nd memory: 107.7 MiB

========================
iter = 25  energy = -215.658975 energy diff = 0.000335
multiplicity <S^2> : Reference = 1.0874489 Response = 1.0876485 Projector = 1.0878482
eri1 (528, 528)
eri1 (528, 528)
    CPU time for making amplitude: integral transform      0.04 sec, wall time      0.00 sec
shape (528, 448)
1st memory: 112.2 MiB
eri1 (528, 528)
eri1 (528, 528)
2nd memory: 112.2 MiB

========================
iter = 26  energy = -215.658967 energy diff = 0.000007
multiplicity <S^2> : Reference = 1.0873071 Response = 1.0875068 Projector = 1.0877065

UOB-MP2 has converged
UOB-MP2 energy =  -215.65896709813688
shift = 0
thresh = 1e-05 
eri1 (528, 528)
eri1 (528, 528)
    CPU time for making amplitude: integral transform      0.04 sec, wall time      0.00 sec
shape (528, 448)
1st memory: 112.2 MiB
eri1 (528, 528)
eri1 (528, 528)
2nd memory: 112.2 MiB

========================
iter = 0  energy = -215.612039 energy diff = 215.612039
multiplicity <S^2> : Reference = 1.0490536 Response = 1.0496479 Projector = 1.0502422
eri1 (528, 528)
eri1 (528, 528)
    CPU time for making amplitude: integral transform      0.04 sec, wall time      0.00 sec
shape (528, 448)
1st memory: 113.9 MiB
eri1 (528, 528)
eri1 (528, 528)
2nd memory: 107.4 MiB

========================
iter = 1  energy = -215.619230 energy diff = 0.007191
multiplicity <S^2> : Reference = 1.0024949 Response = 1.0028147 Projector = 1.0031345
eri1 (528, 528)
eri1 (528, 528)
    CPU time for making amplitude: integral transform      0.04 sec, wall time      0.00 sec
shape (528, 448)
1st memory: 112.0 MiB
eri1 (528, 528)
eri1 (528, 528)
2nd memory: 112.0 MiB

========================
iter = 2  energy = -215.621153 energy diff = 0.001923
multiplicity <S^2> : Reference = 0.97019387 Response = 0.9702996 Projector = 0.97040533
eri1 (528, 528)
eri1 (528, 528)
    CPU time for making amplitude: integral transform      0.04 sec, wall time      0.00 sec
shape (528, 448)
1st memory: 114.4 MiB
eri1 (528, 528)
eri1 (528, 528)
2nd memory: 108.2 MiB

========================
iter = 3  energy = -215.623450 energy diff = 0.002297
multiplicity <S^2> : Reference = 0.91773887 Response = 0.91765722 Projector = 0.91757557
eri1 (528, 528)
eri1 (528, 528)
    CPU time for making amplitude: integral transform      0.04 sec, wall time      0.00 sec
shape (528, 448)
1st memory: 112.1 MiB
eri1 (528, 528)
eri1 (528, 528)
2nd memory: 112.1 MiB

========================
iter = 4  energy = -215.624384 energy diff = 0.000934
multiplicity <S^2> : Reference = 0.89248568 Response = 0.89243158 Projector = 0.89237749
eri1 (528, 528)
eri1 (528, 528)
    CPU time for making amplitude: integral transform      0.03 sec, wall time      0.00 sec
shape (528, 448)
1st memory: 114.0 MiB
eri1 (528, 528)
eri1 (528, 528)
2nd memory: 107.5 MiB

========================
iter = 5  energy = -215.625592 energy diff = 0.001208
multiplicity <S^2> : Reference = 0.86805533 Response = 0.8681541 Projector = 0.86825288
eri1 (528, 528)
eri1 (528, 528)
    CPU time for making amplitude: integral transform      0.04 sec, wall time      0.00 sec
shape (528, 448)
1st memory: 111.9 MiB
eri1 (528, 528)
eri1 (528, 528)
2nd memory: 111.9 MiB

========================
iter = 6  energy = -215.626740 energy diff = 0.001148
multiplicity <S^2> : Reference = 0.87139788 Response = 0.87140857 Projector = 0.87141926
eri1 (528, 528)
eri1 (528, 528)
    CPU time for making amplitude: integral transform      0.04 sec, wall time      0.00 sec
shape (528, 448)
1st memory: 113.8 MiB
eri1 (528, 528)
eri1 (528, 528)
2nd memory: 107.3 MiB

========================
iter = 7  energy = -215.627749 energy diff = 0.001009
multiplicity <S^2> : Reference = 0.89566951 Response = 0.89540179 Projector = 0.89513406
eri1 (528, 528)
eri1 (528, 528)
    CPU time for making amplitude: integral transform      0.04 sec, wall time      0.00 sec
shape (528, 448)
1st memory: 112.1 MiB
eri1 (528, 528)
eri1 (528, 528)
2nd memory: 112.1 MiB

========================
iter = 8  energy = -215.629165 energy diff = 0.001416
multiplicity <S^2> : Reference = 0.93458488 Response = 0.9343104 Projector = 0.93403592
eri1 (528, 528)
eri1 (528, 528)
    CPU time for making amplitude: integral transform      0.04 sec, wall time      0.00 sec
shape (528, 448)
1st memory: 113.9 MiB
eri1 (528, 528)
eri1 (528, 528)
2nd memory: 107.3 MiB

========================
iter = 9  energy = -215.629974 energy diff = 0.000809
multiplicity <S^2> : Reference = 0.95648671 Response = 0.9563182 Projector = 0.95614968
eri1 (528, 528)
eri1 (528, 528)
    CPU time for making amplitude: integral transform      0.04 sec, wall time      0.00 sec
shape (528, 448)
1st memory: 112.4 MiB
eri1 (528, 528)
eri1 (528, 528)
2nd memory: 112.8 MiB

========================
iter = 10  energy = -215.630379 energy diff = 0.000404
multiplicity <S^2> : Reference = 0.96687733 Response = 0.96669782 Projector = 0.96651831
eri1 (528, 528)
eri1 (528, 528)
    CPU time for making amplitude: integral transform      0.04 sec, wall time      0.00 sec
shape (528, 448)
1st memory: 114.0 MiB
eri1 (528, 528)
eri1 (528, 528)
2nd memory: 107.4 MiB

========================
iter = 11  energy = -215.628941 energy diff = 0.001438
multiplicity <S^2> : Reference = 0.93233221 Response = 0.93204357 Projector = 0.93175492
eri1 (528, 528)
eri1 (528, 528)
    CPU time for making amplitude: integral transform      0.04 sec, wall time      0.00 sec
shape (528, 448)
1st memory: 112.1 MiB
eri1 (528, 528)
eri1 (528, 528)
2nd memory: 112.1 MiB

========================
iter = 12  energy = -215.627486 energy diff = 0.001455
multiplicity <S^2> : Reference = 0.90168006 Response = 0.90143268 Projector = 0.90118529
eri1 (528, 528)
eri1 (528, 528)
    CPU time for making amplitude: integral transform      0.04 sec, wall time      0.00 sec
shape (528, 448)
1st memory: 113.9 MiB
eri1 (528, 528)
eri1 (528, 528)
2nd memory: 107.5 MiB

========================
iter = 13  energy = -215.627505 energy diff = 0.000019
multiplicity <S^2> : Reference = 0.91557002 Response = 0.91562839 Projector = 0.91568675
eri1 (528, 528)
eri1 (528, 528)
    CPU time for making amplitude: integral transform      0.04 sec, wall time      0.00 sec
shape (528, 448)
1st memory: 112.0 MiB
eri1 (528, 528)
eri1 (528, 528)
2nd memory: 112.0 MiB

========================
iter = 14  energy = -215.627299 energy diff = 0.000206
multiplicity <S^2> : Reference = 0.92597771 Response = 0.92628771 Projector = 0.92659772
eri1 (528, 528)
eri1 (528, 528)
    CPU time for making amplitude: integral transform      0.04 sec, wall time      0.00 sec
shape (528, 448)
1st memory: 114.2 MiB
eri1 (528, 528)
eri1 (528, 528)
2nd memory: 108.1 MiB

========================
iter = 15  energy = -215.627307 energy diff = 0.000008
multiplicity <S^2> : Reference = 0.94934471 Response = 0.94959775 Projector = 0.94985078

UOB-MP2 has converged
UOB-MP2 energy =  -215.62730723708455


******** <class 'pyscf.scf.uhf.UHF'> ********
method = UHF
initial guess = minao
damping factor = 0
level_shift factor = 0
DIIS = <class 'pyscf.scf.diis.CDIIS'>
diis_start_cycle = 1
diis_space = 8
SCF conv_tol = 1e-09
SCF conv_tol_grad = None
SCF max_cycles = 50
direct_scf = True
direct_scf_tol = 1e-13
chkfile to save SCF result = /home/ltkoanh/Al_B2LYP_6311_Gd_Cluster/Cluster/Al8-cation-doublet/tmp6lcui255
max_memory 4000 MB (current use 108 MB)
number electrons alpha = 18  beta = 17
Set gradient conv threshold to 3.16228e-05
init E= -214.188571584196
  alpha nocc = 18  HOMO = -0.144297485269234  LUMO = -0.116808907938329
  beta  nocc = 17  HOMO = -0.16702684530155  LUMO = -0.144297485269234

WARN: system HOMO -0.144297485269234 >= system LUMO -0.144297485269234

cycle= 1 E= -213.70179400088  delta_E= 0.487  |g|= 0.484  |ddm|= 2.12
  alpha nocc = 18  HOMO = -0.306740732694684  LUMO = -0.215373590820833
  beta  nocc = 17  HOMO = -0.306067780188343  LUMO = -0.21117746816613
cycle= 2 E= -206.421381230448  delta_E= 7.28  |g|= 1.61  |ddm|= 3.63
  alpha nocc = 18  HOMO = -0.346477602303466  LUMO = -0.216978970861541
  beta  nocc = 17  HOMO = -0.343777324816362  LUMO = -0.212404160761344
cycle= 3 E= -207.563967380646  delta_E= -1.14  |g|= 1.01  |ddm|= 0.756
  alpha nocc = 18  HOMO = -0.271294386820435  LUMO = -0.207366266485269
  beta  nocc = 17  HOMO = -0.271229073363849  LUMO = -0.207241120500403
cycle= 4 E= -214.694655529954  delta_E= -7.13  |g|= 0.622  |ddm|= 3.23
  alpha nocc = 18  HOMO = -0.344486931541574  LUMO = -0.170595299146927
  beta  nocc = 17  HOMO = -0.341182363869925  LUMO = -0.16679252913615
cycle= 5 E= -214.014665925991  delta_E= 0.68  |g|= 0.593  |ddm|= 0.785
  alpha nocc = 18  HOMO = -0.314677477440411  LUMO = -0.178144954193924
  beta  nocc = 17  HOMO = -0.309714401275274  LUMO = -0.172548587108874
cycle= 6 E= -213.88268687178  delta_E= 0.132  |g|= 0.53  |ddm|= 0.214
  alpha nocc = 18  HOMO = -0.347819021564363  LUMO = -0.205978570934755
  beta  nocc = 17  HOMO = -0.346232036147256  LUMO = -0.203785981459666
cycle= 7 E= -214.248042093152  delta_E= -0.365  |g|= 0.677  |ddm|= 0.502
  alpha nocc = 18  HOMO = -0.345489197275047  LUMO = -0.240163795672138
  beta  nocc = 17  HOMO = -0.342487766003239  LUMO = -0.237949206840171
cycle= 8 E= -214.62887743357  delta_E= -0.381  |g|= 0.67  |ddm|= 0.459
  alpha nocc = 18  HOMO = -0.33367878460057  LUMO = -0.187187122648635
  beta  nocc = 17  HOMO = -0.330705313563401  LUMO = -0.174702062868769
cycle= 9 E= -215.123343619325  delta_E= -0.494  |g|= 0.438  |ddm|= 0.666
  alpha nocc = 18  HOMO = -0.358644219098361  LUMO = -0.156861528588379
  beta  nocc = 17  HOMO = -0.35911248694882  LUMO = -0.139915780923645
cycle= 10 E= -215.368444151896  delta_E= -0.245  |g|= 0.232  |ddm|= 0.681
  alpha nocc = 18  HOMO = -0.359242490033025  LUMO = -0.135857401914053
  beta  nocc = 17  HOMO = -0.366263813174685  LUMO = -0.106217622113493
cycle= 11 E= -215.477275160938  delta_E= -0.109  |g|= 0.0592  |ddm|= 0.709
  alpha nocc = 18  HOMO = -0.370050533936617  LUMO = -0.124982653370973
  beta  nocc = 17  HOMO = -0.381839153573315  LUMO = -0.103091758417088
cycle= 12 E= -215.488539810977  delta_E= -0.0113  |g|= 0.0382  |ddm|= 0.189
  alpha nocc = 18  HOMO = -0.365291068267935  LUMO = -0.121446624254264
  beta  nocc = 17  HOMO = -0.375610325258419  LUMO = -0.103762621735438
cycle= 13 E= -215.495733554286  delta_E= -0.00719  |g|= 0.0393  |ddm|= 0.149
  alpha nocc = 18  HOMO = -0.364340191282016  LUMO = -0.120845078666368
  beta  nocc = 17  HOMO = -0.374992612866148  LUMO = -0.102797521427068
cycle= 14 E= -215.495479632573  delta_E= 0.000254  |g|= 0.0391  |ddm|= 0.00801
  alpha nocc = 18  HOMO = -0.363878918785416  LUMO = -0.120254147655681
  beta  nocc = 17  HOMO = -0.374939300152516  LUMO = -0.102492649922884
cycle= 15 E= -215.493924355397  delta_E= 0.00156  |g|= 0.0368  |ddm|= 0.048
  alpha nocc = 18  HOMO = -0.363866585598212  LUMO = -0.115124365280662
  beta  nocc = 17  HOMO = -0.372227755247607  LUMO = -0.100682766902959
cycle= 16 E= -215.490939124578  delta_E= 0.00299  |g|= 0.0291  |ddm|=  0.2
  alpha nocc = 18  HOMO = -0.36565767767185  LUMO = -0.113212017256524
  beta  nocc = 17  HOMO = -0.373923819660057  LUMO = -0.101420758338558
cycle= 17 E= -215.493408242362  delta_E= -0.00247  |g|= 0.0295  |ddm|= 0.0758
  alpha nocc = 18  HOMO = -0.361611613679036  LUMO = -0.118626480203805
  beta  nocc = 17  HOMO = -0.373419854559634  LUMO = -0.100132074376108
cycle= 18 E= -215.486712756718  delta_E= 0.0067  |g|= 0.026  |ddm|= 0.192
  alpha nocc = 18  HOMO = -0.360609162374163  LUMO = -0.124447502372719
  beta  nocc = 17  HOMO = -0.380130989471784  LUMO = -0.0925183782040052
cycle= 19 E= -215.479180890285  delta_E= 0.00753  |g|= 0.0152  |ddm|= 0.393
  alpha nocc = 18  HOMO = -0.35166370142664  LUMO = -0.135843327505853
  beta  nocc = 17  HOMO = -0.375019670094779  LUMO = -0.108301333820489
cycle= 20 E= -215.481245999196  delta_E= -0.00207  |g|= 0.016  |ddm|= 0.128
  alpha nocc = 18  HOMO = -0.351446031583479  LUMO = -0.135547233850751
  beta  nocc = 17  HOMO = -0.37709525809997  LUMO = -0.10800433301605
cycle= 21 E= -215.48154287076  delta_E= -0.000297  |g|= 0.016  |ddm|= 0.0372
  alpha nocc = 18  HOMO = -0.354672844637307  LUMO = -0.134582643152628
  beta  nocc = 17  HOMO = -0.376151209530812  LUMO = -0.105205240548914
cycle= 22 E= -215.479989338375  delta_E= 0.00155  |g|= 0.013  |ddm|= 0.0854
  alpha nocc = 18  HOMO = -0.357020152892107  LUMO = -0.135853398742212
  beta  nocc = 17  HOMO = -0.373945994133217  LUMO = -0.104101763670783
cycle= 23 E= -215.478983056846  delta_E= 0.00101  |g|= 0.00989  |ddm|= 0.0983
  alpha nocc = 18  HOMO = -0.354863107364032  LUMO = -0.139624379197672
  beta  nocc = 17  HOMO = -0.373628624014577  LUMO = -0.108022632635803
cycle= 24 E= -215.4799783907  delta_E= -0.000995  |g|= 0.00988  |ddm|= 0.0926
  alpha nocc = 18  HOMO = -0.355825212710557  LUMO = -0.138176125834902
  beta  nocc = 17  HOMO = -0.3755073452469  LUMO = -0.105697611838266
cycle= 25 E= -215.480300081157  delta_E= -0.000322  |g|= 0.0089  |ddm|= 0.0525
  alpha nocc = 18  HOMO = -0.356613366582833  LUMO = -0.137089147951399
  beta  nocc = 17  HOMO = -0.376902855223717  LUMO = -0.102925348535706
cycle= 26 E= -215.480302739311  delta_E= -2.66e-06  |g|= 0.00851  |ddm|= 0.0385
  alpha nocc = 18  HOMO = -0.35610960041108  LUMO = -0.137421929204961
  beta  nocc = 17  HOMO = -0.377026583118024  LUMO = -0.103238179755378
cycle= 27 E= -215.480367167778  delta_E= -6.44e-05  |g|= 0.0086  |ddm|= 0.00702
  alpha nocc = 18  HOMO = -0.356983883305195  LUMO = -0.13908284186194
  beta  nocc = 17  HOMO = -0.375263817641378  LUMO = -0.10422835753252
cycle= 28 E= -215.480167885234  delta_E= 0.000199  |g|= 0.00804  |ddm|= 0.0287
  alpha nocc = 18  HOMO = -0.359471803939003  LUMO = -0.138141767592842
  beta  nocc = 17  HOMO = -0.374805090383486  LUMO = -0.102456947766273
cycle= 29 E= -215.4804830661  delta_E= -0.000315  |g|= 0.0074  |ddm|= 0.0498
  alpha nocc = 18  HOMO = -0.360727984228508  LUMO = -0.139633621943465
  beta  nocc = 17  HOMO = -0.372440219662804  LUMO = -0.102299962504018
cycle= 30 E= -215.481387460163  delta_E= -0.000904  |g|= 0.00666  |ddm|= 0.113
  alpha nocc = 18  HOMO = -0.361598279972278  LUMO = -0.139558588302778
  beta  nocc = 17  HOMO = -0.371531086751812  LUMO = -0.101907649833541
cycle= 31 E= -215.481864284614  delta_E= -0.000477  |g|= 0.00645  |ddm|= 0.0594
  alpha nocc = 18  HOMO = -0.361750562358047  LUMO = -0.139396519740071
  beta  nocc = 17  HOMO = -0.371622352231377  LUMO = -0.101714561124275
cycle= 32 E= -215.482339498701  delta_E= -0.000475  |g|= 0.00637  |ddm|= 0.0582
  alpha nocc = 18  HOMO = -0.361586172344885  LUMO = -0.139348824140348
  beta  nocc = 17  HOMO = -0.371799143334547  LUMO = -0.10161751449028
cycle= 33 E= -215.482578286985  delta_E= -0.000239  |g|= 0.00642  |ddm|= 0.0292
  alpha nocc = 18  HOMO = -0.361639909232143  LUMO = -0.1394741021892
  beta  nocc = 17  HOMO = -0.37177689096147  LUMO = -0.101384207371861
cycle= 34 E= -215.482432609148  delta_E= 0.000146  |g|= 0.00626  |ddm|= 0.0203
  alpha nocc = 18  HOMO = -0.361363110741137  LUMO = -0.139883891825763
  beta  nocc = 17  HOMO = -0.372382294518029  LUMO = -0.101200875382461
cycle= 35 E= -215.482657441647  delta_E= -0.000225  |g|= 0.00619  |ddm|= 0.0355
  alpha nocc = 18  HOMO = -0.361223573879862  LUMO = -0.139800470233922
  beta  nocc = 17  HOMO = -0.372542044897579  LUMO = -0.101116366048136
cycle= 36 E= -215.482637681254  delta_E= 1.98e-05  |g|= 0.00619  |ddm|= 0.00386
  alpha nocc = 18  HOMO = -0.361382655994358  LUMO = -0.139844308033281
  beta  nocc = 17  HOMO = -0.372444566443286  LUMO = -0.101050160683312
cycle= 37 E= -215.482637061805  delta_E= 6.19e-07  |g|= 0.00621  |ddm|= 0.00334
  alpha nocc = 18  HOMO = -0.36097521466489  LUMO = -0.139651535934367
  beta  nocc = 17  HOMO = -0.372629362187455  LUMO = -0.101295302883472
cycle= 38 E= -215.482662121196  delta_E= -2.51e-05  |g|= 0.00623  |ddm|= 0.0122
  alpha nocc = 18  HOMO = -0.361115885053035  LUMO = -0.139923646227899
  beta  nocc = 17  HOMO = -0.372521414544653  LUMO = -0.10120358755152
cycle= 39 E= -215.482558803779  delta_E= 0.000103  |g|= 0.00608  |ddm|= 0.0188
  alpha nocc = 18  HOMO = -0.360972531140555  LUMO = -0.13996580627743
  beta  nocc = 17  HOMO = -0.372795570052464  LUMO = -0.101275816042828
cycle= 40 E= -215.482565579027  delta_E= -6.78e-06  |g|= 0.00602  |ddm|= 0.0136
  alpha nocc = 18  HOMO = -0.360903878914613  LUMO = -0.139907695265098
  beta  nocc = 17  HOMO = -0.372824802982454  LUMO = -0.101238589587562
cycle= 41 E= -215.482643649029  delta_E= -7.81e-05  |g|= 0.00604  |ddm|= 0.00999
  alpha nocc = 18  HOMO = -0.360883688900316  LUMO = -0.140043422966466
  beta  nocc = 17  HOMO = -0.372977736650155  LUMO = -0.101150104751193
cycle= 42 E= -215.482327875565  delta_E= 0.000316  |g|= 0.00597  |ddm|= 0.0405
  alpha nocc = 18  HOMO = -0.360618384613067  LUMO = -0.140084500756869
  beta  nocc = 17  HOMO = -0.373212800975213  LUMO = -0.10108939099497
cycle= 43 E= -215.482298842391  delta_E= 2.9e-05  |g|= 0.00596  |ddm|= 0.00857
  alpha nocc = 18  HOMO = -0.360606709374153  LUMO = -0.14004520490566
  beta  nocc = 17  HOMO = -0.373247053446104  LUMO = -0.101101321747894
cycle= 44 E= -215.482228896943  delta_E= 6.99e-05  |g|= 0.00595  |ddm|= 0.00956
  alpha nocc = 18  HOMO = -0.36041654895789  LUMO = -0.139966128500767
  beta  nocc = 17  HOMO = -0.373434264848592  LUMO = -0.101085112011334
cycle= 45 E= -215.482263705651  delta_E= -3.48e-05  |g|= 0.00596  |ddm|= 0.00534
  alpha nocc = 18  HOMO = -0.361045104115993  LUMO = -0.140070316911997
  beta  nocc = 17  HOMO = -0.372912392403639  LUMO = -0.100855636128113
cycle= 46 E= -215.482033164221  delta_E= 0.000231  |g|= 0.00594  |ddm|= 0.0312
  alpha nocc = 18  HOMO = -0.360845792048352  LUMO = -0.139990254917934
  beta  nocc = 17  HOMO = -0.373052822329301  LUMO = -0.10103013527312
cycle= 47 E= -215.482053536322  delta_E= -2.04e-05  |g|= 0.00594  |ddm|= 0.007
  alpha nocc = 18  HOMO = -0.360966511086151  LUMO = -0.14012046441954
  beta  nocc = 17  HOMO = -0.372961272014115  LUMO = -0.100975216760285
cycle= 48 E= -215.482030426228  delta_E= 2.31e-05  |g|= 0.00594  |ddm|= 0.00646
  alpha nocc = 18  HOMO = -0.360970092866592  LUMO = -0.140120939529131
  beta  nocc = 17  HOMO = -0.372955268214628  LUMO = -0.100986487939861
cycle= 49 E= -215.482014297977  delta_E= 1.61e-05  |g|= 0.00594  |ddm|= 0.00232
  alpha nocc = 18  HOMO = -0.360966231710531  LUMO = -0.140164952126558
  beta  nocc = 17  HOMO = -0.373007546061896  LUMO = -0.100977412810058
cycle= 50 E= -215.482036777204  delta_E= -2.25e-05  |g|= 0.00592  |ddm|= 0.00721
SCF not converged.
SCF energy = -215.482036777204 after 50 cycles  <S^2> = 1.0673729  2S+1 = 2.2955373
