#INFO: **** input file is /home/ltkoanh/Al_B2LYP_6311_Gd_Cluster/Cluster/Al11-neutral-doublet/input.py ****
import numpy
from pyscf import gto, scf, dft, mp, cc
from pyscf.mp import uobmp2_mom_conv, dfuobmp2_mom_conv, uhf_mom
from pyscf.mp import  mp2, ump2
from pyscf.tools import molden
import os
from functools import reduce


mol = gto.Mole()
geom = os.environ.get('geom_txt')
mol.atom = geom
mol.basis = os.environ.get('basis', 'cc-pvdz')
mol.unit = 'A'
mol.charge = int(os.environ.get('charge', 0))
mol.spin = int(os.environ.get('spin', 0))
mol.verbose = 4
mol.build()

#################### Ground state using density fitting
### Hartree-Fock
a  = scf.UHF(mol).density_fit()
a.kernel()

### Ground state OBMP2 calculation
ob = dfuobmp2_mom_conv.DFUOBMP2(a)
ob.second_order = True
ob.thresh = 10e-6
ob.css = 1
ob.cos = 1
e_obmp2g = ob.kernel()

### Ground state O2BMP2 calculation
ob = dfuobmp2_mom_conv.DFUOBMP2(a)
ob.second_order = True
ob.thresh = 10e-6
ob.css = 0                             
ob.cos = 1.2                             
e_o2bmp2g = ob.kernel()  

#################### Ground state NOT using density fitting
### Hartree-Fock
a  = scf.UHF(mol)
a.kernel()

### Ground state OBMP2 calculation
ob = uobmp2_mom_conv.UOBMP2(a)
ob.second_order = True
ob.thresh = 10e-6
ob.css = 1
ob.cos = 1
#e_obmp2g = ob.kernel()

### Ground state O2BMP2 calculation
ob = uobmp2_mom_conv.UOBMP2(a)
ob.second_order = True
ob.thresh = 10e-6
ob.css = 0
ob.cos = 1.2   ## the cos can be vary ...                        	 
#e_o2bmp2g = ob.kernel()


## Results from density-fitting approximate with non-using density fitting 
## check results between df and non-df with small molecules before running the important molecules
#INFO: ******************** input file end ********************


System: uname_result(system='Linux', node='comphys', release='3.10.0-1160.119.1.el7.x86_64', version='#1 SMP Tue Jun 4 14:43:51 UTC 2024', machine='x86_64', processor='x86_64')  Threads 8
Python 3.7.9 (default, Dec  4 2023, 13:00:18) 
[GCC 4.8.5 20150623 (Red Hat 4.8.5-44)]
numpy 1.21.6  scipy 1.7.3
Date: Tue May 27 17:15:57 2025
PySCF version 1.7.0
PySCF path  /share/installs/pyscf/pyscf
GIT HEAD      ref: refs/heads/ob-mp2
GIT ob-mp2 branch  f0fc63383ab6c719c0c91f5e07a6895c637b700d

[CONFIG] conf_file None
[INPUT] verbose = 4
[INPUT] num. atoms = 11
[INPUT] num. electrons = 143
[INPUT] charge = 0
[INPUT] spin (= nelec alpha-beta = 2S) = 1
[INPUT] symmetry False subgroup None
[INPUT] Mole.unit = A
[INPUT]  1 Al     0.000000000000   2.855600000000   1.059441000000 AA    0.000000000000   5.396301921308   2.002053335135 Bohr
[INPUT]  2 Al     0.000000000000   1.330860000000  -1.357858000000 AA    0.000000000000   2.514960910139  -2.565979736050 Bohr
[INPUT]  3 Al     0.000000000000  -1.330860000000  -1.357858000000 AA    0.000000000000  -2.514960910139  -2.565979736050 Bohr
[INPUT]  4 Al     0.000000000000   0.000000000000   1.065139000000 AA    0.000000000000   0.000000000000   2.012820994593 Bohr
[INPUT]  5 Al     0.000000000000  -2.855600000000   1.059441000000 AA    0.000000000000  -5.396301921308   2.002053335135 Bohr
[INPUT]  6 Al    -2.226687000000  -1.556245000000   0.625451000000 AA   -4.207828595129  -2.940876832724   1.181931094335 Bohr
[INPUT]  7 Al    -2.226687000000   1.556245000000   0.625451000000 AA   -4.207828595129   2.940876832724   1.181931094335 Bohr
[INPUT]  8 Al     2.226687000000   1.556245000000   0.625451000000 AA    4.207828595129   2.940876832724   1.181931094335 Bohr
[INPUT]  9 Al     2.226687000000  -1.556245000000   0.625451000000 AA    4.207828595129  -2.940876832724   1.181931094335 Bohr
[INPUT] 10 Al     2.415914000000   0.000000000000  -1.485054000000 AA    4.565415800502   0.000000000000  -2.806345340190 Bohr
[INPUT] 11 Al    -2.415914000000   0.000000000000  -1.485054000000 AA   -4.565415800502   0.000000000000  -2.806345340190 Bohr

nuclear repulsion = 1432.67509621777
number of shells = 55
number of NR pGTOs = 594
number of NR cGTOs = 99
basis = sto-6g
ecp = {}
CPU time:         1.47


******** <class 'pyscf.df.df_jk.density_fit.<locals>.DFHF'> ********
method = DFHF-UHF
initial guess = minao
damping factor = 0
level_shift factor = 0
DIIS = <class 'pyscf.scf.diis.CDIIS'>
diis_start_cycle = 1
diis_space = 8
SCF conv_tol = 1e-09
SCF conv_tol_grad = None
SCF max_cycles = 50
direct_scf = True
direct_scf_tol = 1e-13
chkfile to save SCF result = /home/ltkoanh/Al_B2LYP_6311_Gd_Cluster/Cluster/Al11-neutral-doublet/tmpaikcm3h3
max_memory 4000 MB (current use 60 MB)
number electrons alpha = 72  beta = 71
Set gradient conv threshold to 3.16228e-05
******** <class 'pyscf.df.df.DF'> ********
auxbasis = None
max_memory = 4000
_cderi_to_save = /home/ltkoanh/Al_B2LYP_6311_Gd_Cluster/Cluster/Al11-neutral-doublet/tmp5sc9kq8m
Even tempered Gaussians are generated as DF auxbasis for  Al
init E= -2651.58517294763
  alpha nocc = 72  HOMO = -0.202512501225254  LUMO = -0.138317160188342
  beta  nocc = 71  HOMO = -0.22791211244814  LUMO = -0.202512501225267

WARN: system HOMO -0.202512501225267 >= system LUMO -0.202512501225267

cycle= 1 E= -2649.90781120954  delta_E= 1.68  |g|= 0.249  |ddm|= 3.72
  alpha nocc = 72  HOMO = 0.0910666849343667  LUMO = 0.265631442333813
  beta  nocc = 71  HOMO = 0.0677669645827318  LUMO = 0.260654566118869
cycle= 2 E= -2649.95042297081  delta_E= -0.0426  |g|= 0.175  |ddm|= 0.819
  alpha nocc = 72  HOMO = 0.031357365720186  LUMO = 0.249800858055851
  beta  nocc = 71  HOMO = 0.0274491005787099  LUMO = 0.243891620431992
cycle= 3 E= -2649.97999201456  delta_E= -0.0296  |g|= 0.0343  |ddm|= 0.344
  alpha nocc = 72  HOMO = 0.0243422317382584  LUMO = 0.247709229812503
  beta  nocc = 71  HOMO = 0.0208094198358167  LUMO = 0.244685401564868
cycle= 4 E= -2649.98381290503  delta_E= -0.00382  |g|= 0.0228  |ddm|= 0.153
  alpha nocc = 72  HOMO = 0.0224619815538415  LUMO = 0.249099409023187
  beta  nocc = 71  HOMO = 0.0216564550817786  LUMO = 0.246067199044615
cycle= 5 E= -2649.98552055623  delta_E= -0.00171  |g|= 0.017  |ddm|= 0.0989
  alpha nocc = 72  HOMO = 0.0216497931318719  LUMO = 0.250473814406129
  beta  nocc = 71  HOMO = 0.0209000179535027  LUMO = 0.247565243478006
cycle= 6 E= -2649.98715948991  delta_E= -0.00164  |g|= 0.0108  |ddm|= 0.117
  alpha nocc = 72  HOMO = 0.0224886178279797  LUMO = 0.250170188525783
  beta  nocc = 71  HOMO = 0.0215512319876405  LUMO = 0.248445692397114
cycle= 7 E= -2649.98854114732  delta_E= -0.00138  |g|= 0.00811  |ddm|= 0.141
  alpha nocc = 72  HOMO = 0.0229829682986738  LUMO = 0.25033843760535
  beta  nocc = 71  HOMO = 0.0213210877226328  LUMO = 0.24834758957146
cycle= 8 E= -2649.98919147393  delta_E= -0.00065  |g|= 0.00726  |ddm|= 0.0819
  alpha nocc = 72  HOMO = 0.0231447353148962  LUMO = 0.249628391237356
  beta  nocc = 71  HOMO = 0.0212561323734621  LUMO = 0.248591383156082
cycle= 9 E= -2649.98989311824  delta_E= -0.000702  |g|= 0.00686  |ddm|= 0.0929
  alpha nocc = 72  HOMO = 0.0233655965724384  LUMO = 0.249369921510558
  beta  nocc = 71  HOMO = 0.0211875026043015  LUMO = 0.248886900238144
cycle= 10 E= -2649.99024419205  delta_E= -0.000351  |g|= 0.00691  |ddm|= 0.0463
  alpha nocc = 72  HOMO = 0.0230171908197749  LUMO = 0.249833608841891
  beta  nocc = 71  HOMO = 0.0212348546339588  LUMO = 0.24843105347622
cycle= 11 E= -2649.98988783507  delta_E= 0.000356  |g|= 0.00678  |ddm|= 0.0479
  alpha nocc = 72  HOMO = 0.0233752908235147  LUMO = 0.251307808662027
  beta  nocc = 71  HOMO = 0.0211466652366059  LUMO = 0.246934124613138
cycle= 12 E= -2649.98887885544  delta_E= 0.00101  |g|= 0.00617  |ddm|= 0.154
  alpha nocc = 72  HOMO = 0.0245198616877639  LUMO = 0.250914218105762
  beta  nocc = 71  HOMO = 0.0216975657240628  LUMO = 0.244953439862662
cycle= 13 E= -2649.98807976517  delta_E= 0.000799  |g|= 0.00595  |ddm|= 0.17
  alpha nocc = 72  HOMO = 0.0247336747485105  LUMO = 0.250608174338016
  beta  nocc = 71  HOMO = 0.021706833423159  LUMO = 0.244463677195154
cycle= 14 E= -2649.98804066631  delta_E= 3.91e-05  |g|= 0.0052  |ddm|= 0.0282
  alpha nocc = 72  HOMO = 0.0251125404727241  LUMO = 0.250196035919909
  beta  nocc = 71  HOMO = 0.0215947616813147  LUMO = 0.243519576270079
cycle= 15 E= -2649.9878364169  delta_E= 0.000204  |g|= 0.00526  |ddm|= 0.0833
  alpha nocc = 72  HOMO = 0.0256711612806062  LUMO = 0.249400564974966
  beta  nocc = 71  HOMO = 0.0222000907653868  LUMO = 0.242849309680187
cycle= 16 E= -2649.98794725494  delta_E= -0.000111  |g|= 0.0041  |ddm|= 0.0882
  alpha nocc = 72  HOMO = 0.0257065396944039  LUMO = 0.249043400164788
  beta  nocc = 71  HOMO = 0.0222358714884015  LUMO = 0.243072067594792
cycle= 17 E= -2649.98825277816  delta_E= -0.000306  |g|= 0.00382  |ddm|= 0.0809
  alpha nocc = 72  HOMO = 0.0257663693040718  LUMO = 0.248983877933363
  beta  nocc = 71  HOMO = 0.0214720815675702  LUMO = 0.243411647941858
cycle= 18 E= -2649.9884005772  delta_E= -0.000148  |g|= 0.0035  |ddm|= 0.041
  alpha nocc = 72  HOMO = 0.0258879450318574  LUMO = 0.248837181033727
  beta  nocc = 71  HOMO = 0.0208030737023886  LUMO = 0.243823126166698
cycle= 19 E= -2649.9885615432  delta_E= -0.000161  |g|= 0.00312  |ddm|= 0.0622
  alpha nocc = 72  HOMO = 0.0254811270207856  LUMO = 0.248635683484812
  beta  nocc = 71  HOMO = 0.0201510380292416  LUMO = 0.246259366825598
cycle= 20 E= -2649.98894063114  delta_E= -0.000379  |g|= 0.00334  |ddm|= 0.158
  alpha nocc = 72  HOMO = 0.0256978226323389  LUMO = 0.248450042273233
  beta  nocc = 71  HOMO = 0.0197712378189602  LUMO = 0.24559625351801
cycle= 21 E= -2649.98901273699  delta_E= -7.21e-05  |g|= 0.00202  |ddm|= 0.0512
  alpha nocc = 72  HOMO = 0.0254231236985492  LUMO = 0.248679601333187
  beta  nocc = 71  HOMO = 0.0190713960838278  LUMO = 0.246343600294273
cycle= 22 E= -2649.9890792871  delta_E= -6.66e-05  |g|= 0.00194  |ddm|= 0.0389
  alpha nocc = 72  HOMO = 0.0253423817047533  LUMO = 0.248565528940613
  beta  nocc = 71  HOMO = 0.0192572163995425  LUMO = 0.245957222785435
cycle= 23 E= -2649.98911961371  delta_E= -4.03e-05  |g|= 0.00185  |ddm|= 0.0203
  alpha nocc = 72  HOMO = 0.0249825107805369  LUMO = 0.24877606695765
  beta  nocc = 71  HOMO = 0.0187884907479857  LUMO = 0.246245424212458
cycle= 24 E= -2649.98919316827  delta_E= -7.36e-05  |g|= 0.00175  |ddm|= 0.0388
  alpha nocc = 72  HOMO = 0.0243329863756801  LUMO = 0.249026590871073
  beta  nocc = 71  HOMO = 0.0182791690107114  LUMO = 0.246267245578914
cycle= 25 E= -2649.98932730687  delta_E= -0.000134  |g|= 0.00156  |ddm|= 0.0766
  alpha nocc = 72  HOMO = 0.0231026814640304  LUMO = 0.249633078530214
  beta  nocc = 71  HOMO = 0.0173630339622945  LUMO = 0.246679738707794
cycle= 26 E= -2649.98947108086  delta_E= -0.000144  |g|= 0.00129  |ddm|= 0.103
  alpha nocc = 72  HOMO = 0.023505179739366  LUMO = 0.249447552887914
  beta  nocc = 71  HOMO = 0.0173908600288065  LUMO = 0.247219225142675
cycle= 27 E= -2649.98953393753  delta_E= -6.29e-05  |g|= 0.000939  |ddm|= 0.0646
  alpha nocc = 72  HOMO = 0.0237935474916619  LUMO = 0.249733275014681
  beta  nocc = 71  HOMO = 0.0174969939423577  LUMO = 0.247486153846356
cycle= 28 E= -2649.98955811928  delta_E= -2.42e-05  |g|= 0.000759  |ddm|= 0.0409
  alpha nocc = 72  HOMO = 0.0240537284216136  LUMO = 0.250086513733061
  beta  nocc = 71  HOMO = 0.0175270894822298  LUMO = 0.247677964630742
cycle= 29 E= -2649.98956888817  delta_E= -1.08e-05  |g|= 0.000594  |ddm|= 0.0317
  alpha nocc = 72  HOMO = 0.0238836460186929  LUMO = 0.249427659470004
  beta  nocc = 71  HOMO = 0.0174563758678261  LUMO = 0.247623944596081
cycle= 30 E= -2649.9895665905  delta_E= 2.3e-06  |g|= 0.000515  |ddm|= 0.0193
  alpha nocc = 72  HOMO = 0.0241427974518712  LUMO = 0.250008510416565
  beta  nocc = 71  HOMO = 0.0175467129858944  LUMO = 0.247838980057825
cycle= 31 E= -2649.98957344239  delta_E= -6.85e-06  |g|= 0.000455  |ddm|= 0.031
  alpha nocc = 72  HOMO = 0.0241307522054038  LUMO = 0.24993871767294
  beta  nocc = 71  HOMO = 0.0175155762546263  LUMO = 0.247832753609756
cycle= 32 E= -2649.98957415305  delta_E= -7.11e-07  |g|= 0.000444  |ddm|= 0.00262
  alpha nocc = 72  HOMO = 0.0240788148036671  LUMO = 0.249745895594672
  beta  nocc = 71  HOMO = 0.0174898841063652  LUMO = 0.247805551522229
cycle= 33 E= -2649.98957403254  delta_E= 1.21e-07  |g|= 0.000446  |ddm|= 0.0085
  alpha nocc = 72  HOMO = 0.0241082812680796  LUMO = 0.249826138269186
  beta  nocc = 71  HOMO = 0.0175032196121116  LUMO = 0.247826297197957
cycle= 34 E= -2649.98957441707  delta_E= -3.85e-07  |g|= 0.000446  |ddm|= 0.00433
  alpha nocc = 72  HOMO = 0.0240639923166328  LUMO = 0.24980883295767
  beta  nocc = 71  HOMO = 0.0174993649852082  LUMO = 0.247775643644567
cycle= 35 E= -2649.98957230408  delta_E= 2.11e-06  |g|= 0.000422  |ddm|= 0.0048
  alpha nocc = 72  HOMO = 0.0239651124182906  LUMO = 0.249793377348546
  beta  nocc = 71  HOMO = 0.017471702990233  LUMO = 0.247739020618108
cycle= 36 E= -2649.98956948414  delta_E= 2.82e-06  |g|= 0.000376  |ddm|= 0.00712
  alpha nocc = 72  HOMO = 0.0239022422180621  LUMO = 0.249797339630312
  beta  nocc = 71  HOMO = 0.01747692218338  LUMO = 0.247733234533845
cycle= 37 E= -2649.98956727965  delta_E= 2.2e-06  |g|= 0.000335  |ddm|= 0.00707
  alpha nocc = 72  HOMO = 0.0238619629122264  LUMO = 0.249782542471734
  beta  nocc = 71  HOMO = 0.0174907225394592  LUMO = 0.247738234521143
cycle= 38 E= -2649.98956614073  delta_E= 1.14e-06  |g|= 0.000316  |ddm|= 0.00487
  alpha nocc = 72  HOMO = 0.0237887822278267  LUMO = 0.249748105299721
  beta  nocc = 71  HOMO = 0.017512437735308  LUMO = 0.247750541544745
cycle= 39 E= -2649.98956493177  delta_E= 1.21e-06  |g|= 0.000255  |ddm|= 0.00598
  alpha nocc = 72  HOMO = 0.0237518420045141  LUMO = 0.249737254358972
  beta  nocc = 71  HOMO = 0.0175422447841393  LUMO = 0.247735316298255
cycle= 40 E= -2649.98956454382  delta_E= 3.88e-07  |g|= 0.000235  |ddm|= 0.00293
  alpha nocc = 72  HOMO = 0.0237065098196572  LUMO = 0.249738120456909
  beta  nocc = 71  HOMO = 0.0175806443766483  LUMO = 0.247687133500382
cycle= 41 E= -2649.98956441715  delta_E= 1.27e-07  |g|= 0.000211  |ddm|= 0.00371
  alpha nocc = 72  HOMO = 0.0236100170008695  LUMO = 0.249715809613762
  beta  nocc = 71  HOMO = 0.0176406168642416  LUMO = 0.24759817461565
cycle= 42 E= -2649.98956423081  delta_E= 1.86e-07  |g|= 0.000164  |ddm|= 0.00644
  alpha nocc = 72  HOMO = 0.023549160766869  LUMO = 0.249708384920573
  beta  nocc = 71  HOMO = 0.0176757231251215  LUMO = 0.247550078508925
cycle= 43 E= -2649.98956438101  delta_E= -1.5e-07  |g|= 0.000128  |ddm|= 0.00346
  alpha nocc = 72  HOMO = 0.0234792340136684  LUMO = 0.249697509406439
  beta  nocc = 71  HOMO = 0.0177076458039212  LUMO = 0.247480528672856
cycle= 44 E= -2649.98956455652  delta_E= -1.76e-07  |g|= 9.93e-05  |ddm|= 0.0044
  alpha nocc = 72  HOMO = 0.0234474535900309  LUMO = 0.249692766369892
  beta  nocc = 71  HOMO = 0.0177205762386051  LUMO = 0.247465204656652
cycle= 45 E= -2649.98956468594  delta_E= -1.29e-07  |g|= 7.68e-05  |ddm|= 0.00202
  alpha nocc = 72  HOMO = 0.0234343205431111  LUMO = 0.24969384732956
  beta  nocc = 71  HOMO = 0.0177342855780814  LUMO = 0.247455722548247
cycle= 46 E= -2649.98956479054  delta_E= -1.05e-07  |g|= 6.54e-05  |ddm|= 0.00147
  alpha nocc = 72  HOMO = 0.0234339648410115  LUMO = 0.249699001638865
  beta  nocc = 71  HOMO = 0.0177455934315888  LUMO = 0.247453429309444
cycle= 47 E= -2649.98956485995  delta_E= -6.94e-08  |g|= 6.18e-05  |ddm|= 0.00125
  alpha nocc = 72  HOMO = 0.0234307233253402  LUMO = 0.24970271134854
  beta  nocc = 71  HOMO = 0.0177532600613074  LUMO = 0.247451807184477
cycle= 48 E= -2649.98956491056  delta_E= -5.06e-08  |g|= 5.48e-05  |ddm|= 0.00108
  alpha nocc = 72  HOMO = 0.023429576086361  LUMO = 0.249705419779441
  beta  nocc = 71  HOMO = 0.0177587772563888  LUMO = 0.247450859436961
cycle= 49 E= -2649.98956493698  delta_E= -2.64e-08  |g|= 5.22e-05  |ddm|= 0.000699
  alpha nocc = 72  HOMO = 0.0234294069323991  LUMO = 0.249710201090782
  beta  nocc = 71  HOMO = 0.0177718825079123  LUMO = 0.24744593673621
cycle= 50 E= -2649.98956497219  delta_E= -3.52e-08  |g|= 4.76e-05  |ddm|= 0.00086
SCF not converged.
SCF energy = -2649.98956497219 after 50 cycles  <S^2> = 1.3984544  2S+1 = 2.567843
shift = 0
thresh = 1e-05 
eri1 (1243, 4950)
eri1 (1243, 4950)
    CPU time for making amplitude: integral transform      0.85 sec, wall time      0.06 sec
shape (1243, 2673)
1st memory: 409.6 MiB
eri1 (1243, 4950)
eri1 (1243, 4950)
2nd memory: 354.4 MiB

========================
iter = 0  energy = -2650.642626 energy diff = 2650.642626
multiplicity <S^2> : Reference = 1.3984544 Response = 1.3987803 Projector = 1.3991063
eri1 (1243, 4950)
eri1 (1243, 4950)
    CPU time for making amplitude: integral transform      0.76 sec, wall time      0.05 sec
shape (1243, 2673)
1st memory: 434.0 MiB
eri1 (1243, 4950)
eri1 (1243, 4950)
2nd memory: 355.6 MiB

========================
iter = 1  energy = -2650.659178 energy diff = 0.016552
multiplicity <S^2> : Reference = 1.1523239 Response = 1.1523795 Projector = 1.152435
eri1 (1243, 4950)
eri1 (1243, 4950)
    CPU time for making amplitude: integral transform      0.77 sec, wall time      0.05 sec
shape (1243, 2673)
1st memory: 419.7 MiB
eri1 (1243, 4950)
eri1 (1243, 4950)
2nd memory: 354.4 MiB

========================
iter = 2  energy = -2650.670328 energy diff = 0.011150
multiplicity <S^2> : Reference = 1.0329985 Response = 1.0330188 Projector = 1.0330391
eri1 (1243, 4950)
eri1 (1243, 4950)
    CPU time for making amplitude: integral transform      0.73 sec, wall time      0.05 sec
shape (1243, 2673)
1st memory: 448.0 MiB
eri1 (1243, 4950)
eri1 (1243, 4950)
2nd memory: 356.1 MiB

========================
iter = 3  energy = -2650.678526 energy diff = 0.008198
multiplicity <S^2> : Reference = 0.92458861 Response = 0.92455815 Projector = 0.92452769
eri1 (1243, 4950)
eri1 (1243, 4950)
    CPU time for making amplitude: integral transform      0.79 sec, wall time      0.05 sec
shape (1243, 2673)
1st memory: 425.8 MiB
eri1 (1243, 4950)
eri1 (1243, 4950)
2nd memory: 356.5 MiB

========================
iter = 4  energy = -2650.683857 energy diff = 0.005331
multiplicity <S^2> : Reference = 0.84157607 Response = 0.84157853 Projector = 0.841581
eri1 (1243, 4950)
eri1 (1243, 4950)
    CPU time for making amplitude: integral transform      0.87 sec, wall time      0.06 sec
shape (1243, 2673)
1st memory: 452.3 MiB
eri1 (1243, 4950)
eri1 (1243, 4950)
2nd memory: 355.6 MiB

========================
iter = 5  energy = -2650.685815 energy diff = 0.001958
multiplicity <S^2> : Reference = 0.80929253 Response = 0.80930044 Projector = 0.80930835
eri1 (1243, 4950)
eri1 (1243, 4950)
    CPU time for making amplitude: integral transform      0.91 sec, wall time      0.06 sec
shape (1243, 2673)
1st memory: 425.8 MiB
eri1 (1243, 4950)
eri1 (1243, 4950)
2nd memory: 357.0 MiB

========================
iter = 6  energy = -2650.686523 energy diff = 0.000708
multiplicity <S^2> : Reference = 0.79187757 Response = 0.79189037 Projector = 0.79190316
eri1 (1243, 4950)
eri1 (1243, 4950)
    CPU time for making amplitude: integral transform      0.69 sec, wall time      0.05 sec
shape (1243, 2673)
1st memory: 452.3 MiB
eri1 (1243, 4950)
eri1 (1243, 4950)
2nd memory: 357.4 MiB

========================
iter = 7  energy = -2650.686715 energy diff = 0.000192
multiplicity <S^2> : Reference = 0.78785945 Response = 0.78784643 Projector = 0.78783341
eri1 (1243, 4950)
eri1 (1243, 4950)
    CPU time for making amplitude: integral transform      0.79 sec, wall time      0.05 sec
shape (1243, 2673)
1st memory: 425.8 MiB
eri1 (1243, 4950)
eri1 (1243, 4950)
2nd memory: 356.1 MiB

========================
iter = 8  energy = -2650.686777 energy diff = 0.000062
multiplicity <S^2> : Reference = 0.78581919 Response = 0.78581562 Projector = 0.78581206
eri1 (1243, 4950)
eri1 (1243, 4950)
    CPU time for making amplitude: integral transform      0.74 sec, wall time      0.05 sec
shape (1243, 2673)
1st memory: 452.3 MiB
eri1 (1243, 4950)
eri1 (1243, 4950)
2nd memory: 356.3 MiB

========================
iter = 9  energy = -2650.686789 energy diff = 0.000012
multiplicity <S^2> : Reference = 0.78528144 Response = 0.78527619 Projector = 0.78527095
eri1 (1243, 4950)
eri1 (1243, 4950)
    CPU time for making amplitude: integral transform      0.71 sec, wall time      0.05 sec
shape (1243, 2673)
1st memory: 425.4 MiB
eri1 (1243, 4950)
eri1 (1243, 4950)
2nd memory: 357.4 MiB

========================
iter = 10  energy = -2650.686788 energy diff = 0.000001
multiplicity <S^2> : Reference = 0.78516329 Response = 0.78515936 Projector = 0.78515544

UOB-MP2 has converged
UOB-MP2 energy =  -2650.686787914793
shift = 0
thresh = 1e-05 
eri1 (1243, 4950)
eri1 (1243, 4950)
    CPU time for making amplitude: integral transform      0.92 sec, wall time      0.06 sec
shape (1243, 2673)
1st memory: 425.8 MiB
eri1 (1243, 4950)
eri1 (1243, 4950)
2nd memory: 354.8 MiB

========================
iter = 0  energy = -2650.424234 energy diff = 2650.424234
multiplicity <S^2> : Reference = 1.3984544 Response = 1.3987803 Projector = 1.3991063
eri1 (1243, 4950)
eri1 (1243, 4950)
    CPU time for making amplitude: integral transform      0.79 sec, wall time      0.05 sec
shape (1243, 2673)
1st memory: 452.3 MiB
eri1 (1243, 4950)
eri1 (1243, 4950)
2nd memory: 354.8 MiB

========================
iter = 1  energy = -2650.453992 energy diff = 0.029758
multiplicity <S^2> : Reference = 1.1807068 Response = 1.1806386 Projector = 1.1805704
eri1 (1243, 4950)
eri1 (1243, 4950)
    CPU time for making amplitude: integral transform      0.82 sec, wall time      0.06 sec
shape (1243, 2673)
1st memory: 425.8 MiB
eri1 (1243, 4950)
eri1 (1243, 4950)
2nd memory: 355.6 MiB

========================
iter = 2  energy = -2650.460880 energy diff = 0.006888
multiplicity <S^2> : Reference = 1.0611481 Response = 1.0612662 Projector = 1.0613843
eri1 (1243, 4950)
eri1 (1243, 4950)
    CPU time for making amplitude: integral transform      0.85 sec, wall time      0.06 sec
shape (1243, 2673)
1st memory: 452.3 MiB
eri1 (1243, 4950)
eri1 (1243, 4950)
2nd memory: 355.6 MiB

========================
iter = 3  energy = -2650.465974 energy diff = 0.005094
multiplicity <S^2> : Reference = 0.95433807 Response = 0.95430322 Projector = 0.95426836
eri1 (1243, 4950)
eri1 (1243, 4950)
    CPU time for making amplitude: integral transform      0.79 sec, wall time      0.05 sec
shape (1243, 2673)
1st memory: 425.3 MiB
eri1 (1243, 4950)
eri1 (1243, 4950)
2nd memory: 355.4 MiB

========================
iter = 4  energy = -2650.469753 energy diff = 0.003779
multiplicity <S^2> : Reference = 0.86488465 Response = 0.86489229 Projector = 0.86489993
eri1 (1243, 4950)
eri1 (1243, 4950)
    CPU time for making amplitude: integral transform      0.90 sec, wall time      0.06 sec
shape (1243, 2673)
1st memory: 452.3 MiB
eri1 (1243, 4950)
eri1 (1243, 4950)
2nd memory: 356.5 MiB

========================
iter = 5  energy = -2650.471133 energy diff = 0.001379
multiplicity <S^2> : Reference = 0.82722968 Response = 0.82721494 Projector = 0.82720021
eri1 (1243, 4950)
eri1 (1243, 4950)
    CPU time for making amplitude: integral transform      0.91 sec, wall time      0.06 sec
shape (1243, 2673)
1st memory: 425.3 MiB
eri1 (1243, 4950)
eri1 (1243, 4950)
2nd memory: 355.7 MiB

========================
iter = 6  energy = -2650.471976 energy diff = 0.000843
multiplicity <S^2> : Reference = 0.80076795 Response = 0.80076609 Projector = 0.80076423
eri1 (1243, 4950)
eri1 (1243, 4950)
    CPU time for making amplitude: integral transform      0.72 sec, wall time      0.05 sec
shape (1243, 2673)
1st memory: 451.3 MiB
eri1 (1243, 4950)
eri1 (1243, 4950)
2nd memory: 356.5 MiB

========================
iter = 7  energy = -2650.472114 energy diff = 0.000138
multiplicity <S^2> : Reference = 0.79544071 Response = 0.79541944 Projector = 0.79539817
eri1 (1243, 4950)
eri1 (1243, 4950)
    CPU time for making amplitude: integral transform      0.91 sec, wall time      0.06 sec
shape (1243, 2673)
1st memory: 425.8 MiB
eri1 (1243, 4950)
eri1 (1243, 4950)
2nd memory: 357.0 MiB

========================
iter = 8  energy = -2650.472169 energy diff = 0.000055
multiplicity <S^2> : Reference = 0.79300721 Response = 0.79299017 Projector = 0.79297314
eri1 (1243, 4950)
eri1 (1243, 4950)
    CPU time for making amplitude: integral transform      0.76 sec, wall time      0.05 sec
shape (1243, 2673)
1st memory: 442.8 MiB
eri1 (1243, 4950)
eri1 (1243, 4950)
2nd memory: 350.3 MiB

========================
iter = 9  energy = -2650.472180 energy diff = 0.000012
multiplicity <S^2> : Reference = 0.79234388 Response = 0.7923129 Projector = 0.79228192
eri1 (1243, 4950)
eri1 (1243, 4950)
    CPU time for making amplitude: integral transform      0.61 sec, wall time      0.21 sec
shape (1243, 2673)
1st memory: 419.7 MiB
eri1 (1243, 4950)
eri1 (1243, 4950)
2nd memory: 352.0 MiB

========================
iter = 10  energy = -2650.472183 energy diff = 0.000003
multiplicity <S^2> : Reference = 0.79214325 Response = 0.79211526 Projector = 0.79208726

UOB-MP2 has converged
UOB-MP2 energy =  -2650.4721832463574


******** <class 'pyscf.scf.uhf.UHF'> ********
method = UHF
initial guess = minao
damping factor = 0
level_shift factor = 0
DIIS = <class 'pyscf.scf.diis.CDIIS'>
diis_start_cycle = 1
diis_space = 8
SCF conv_tol = 1e-09
SCF conv_tol_grad = None
SCF max_cycles = 50
direct_scf = True
direct_scf_tol = 1e-13
chkfile to save SCF result = /home/ltkoanh/Al_B2LYP_6311_Gd_Cluster/Cluster/Al11-neutral-doublet/tmpwp9n4t5m
max_memory 4000 MB (current use 275 MB)
number electrons alpha = 72  beta = 71
Set gradient conv threshold to 3.16228e-05
init E= -2651.58697804574
  alpha nocc = 72  HOMO = -0.20274600284901  LUMO = -0.138525825417493
  beta  nocc = 71  HOMO = -0.228098493126895  LUMO = -0.20274600284901

WARN: system HOMO -0.20274600284901 >= system LUMO -0.20274600284901

cycle= 1 E= -2649.91093768253  delta_E= 1.68  |g|= 0.25  |ddm|= 3.72
  alpha nocc = 72  HOMO = 0.0909519159479849  LUMO = 0.265461448081223
  beta  nocc = 71  HOMO = 0.0676207229483743  LUMO = 0.26043716985508
cycle= 2 E= -2649.95352849839  delta_E= -0.0426  |g|= 0.175  |ddm|= 0.82
  alpha nocc = 72  HOMO = 0.0312192528707114  LUMO = 0.249622630861185
  beta  nocc = 71  HOMO = 0.0273950081621396  LUMO = 0.243690252626687
cycle= 3 E= -2649.98321916389  delta_E= -0.0297  |g|= 0.0342  |ddm|= 0.344
  alpha nocc = 72  HOMO = 0.0241669273336265  LUMO = 0.247553475175093
  beta  nocc = 71  HOMO = 0.0206017959486513  LUMO = 0.244459609628645
cycle= 4 E= -2649.98702465352  delta_E= -0.00381  |g|= 0.0228  |ddm|= 0.152
  alpha nocc = 72  HOMO = 0.0222977771007114  LUMO = 0.248918448263523
  beta  nocc = 71  HOMO = 0.0214479816612094  LUMO = 0.245833734620138
cycle= 5 E= -2649.98872546171  delta_E= -0.0017  |g|= 0.0169  |ddm|= 0.0986
  alpha nocc = 72  HOMO = 0.0216061650111929  LUMO = 0.250317347383376
  beta  nocc = 71  HOMO = 0.020686185498491  LUMO = 0.247333589933969
cycle= 6 E= -2649.99036078245  delta_E= -0.00164  |g|= 0.0107  |ddm|= 0.117
  alpha nocc = 72  HOMO = 0.0224416826660065  LUMO = 0.250013332492188
  beta  nocc = 71  HOMO = 0.0213371218315878  LUMO = 0.248222142457841
cycle= 7 E= -2649.99173725905  delta_E= -0.00138  |g|= 0.00811  |ddm|= 0.141
  alpha nocc = 72  HOMO = 0.0228501697343957  LUMO = 0.250181697055998
  beta  nocc = 71  HOMO = 0.0211080117744756  LUMO = 0.248134898281886
cycle= 8 E= -2649.99238732401  delta_E= -0.00065  |g|= 0.00728  |ddm|= 0.0817
  alpha nocc = 72  HOMO = 0.0230123067084668  LUMO = 0.249477562428861
  beta  nocc = 71  HOMO = 0.0210434481808358  LUMO = 0.248387130267454
cycle= 9 E= -2649.99308953428  delta_E= -0.000702  |g|= 0.00689  |ddm|= 0.0926
  alpha nocc = 72  HOMO = 0.0232280390075511  LUMO = 0.249225506288222
  beta  nocc = 71  HOMO = 0.0209790184993769  LUMO = 0.24867575992287
cycle= 10 E= -2649.9934328391  delta_E= -0.000343  |g|= 0.00694  |ddm|= 0.045
  alpha nocc = 72  HOMO = 0.0228508578945407  LUMO = 0.249726190222982
  beta  nocc = 71  HOMO = 0.0210283525635132  LUMO = 0.248191046640291
cycle= 11 E= -2649.99305250385  delta_E= 0.00038  |g|= 0.0068  |ddm|= 0.051
  alpha nocc = 72  HOMO = 0.0233444847120116  LUMO = 0.251104728415051
  beta  nocc = 71  HOMO = 0.0209396403006184  LUMO = 0.246681185186199
cycle= 12 E= -2649.99203440153  delta_E= 0.00102  |g|= 0.00617  |ddm|= 0.155
  alpha nocc = 72  HOMO = 0.0244930379724786  LUMO = 0.250699471945908
  beta  nocc = 71  HOMO = 0.0214931219844421  LUMO = 0.244696722884521
cycle= 13 E= -2649.99125591551  delta_E= 0.000778  |g|= 0.0059  |ddm|= 0.169
  alpha nocc = 72  HOMO = 0.0247243660065914  LUMO = 0.250364463652114
  beta  nocc = 71  HOMO = 0.0214935346363071  LUMO = 0.244162495526682
cycle= 14 E= -2649.99121127757  delta_E= 4.46e-05  |g|= 0.00516  |ddm|= 0.0315
  alpha nocc = 72  HOMO = 0.025096914910146  LUMO = 0.24996258742815
  beta  nocc = 71  HOMO = 0.0213850726739961  LUMO = 0.243262686534036
cycle= 15 E= -2649.9910259464  delta_E= 0.000185  |g|= 0.00522  |ddm|= 0.081
  alpha nocc = 72  HOMO = 0.0256512661534973  LUMO = 0.249165752391435
  beta  nocc = 71  HOMO = 0.0220745831963984  LUMO = 0.242631945098981
cycle= 16 E= -2649.99116090382  delta_E= -0.000135  |g|= 0.00406  |ddm|= 0.0883
  alpha nocc = 72  HOMO = 0.025660680702668  LUMO = 0.24885392234227
  beta  nocc = 71  HOMO = 0.0220494770983186  LUMO = 0.242902720251402
cycle= 17 E= -2649.99145996779  delta_E= -0.000299  |g|= 0.00381  |ddm|= 0.079
  alpha nocc = 72  HOMO = 0.0257257759189682  LUMO = 0.248804526768875
  beta  nocc = 71  HOMO = 0.021271781398913  LUMO = 0.243226065335657
cycle= 18 E= -2649.9916010732  delta_E= -0.000141  |g|= 0.00348  |ddm|= 0.039
  alpha nocc = 72  HOMO = 0.0258345443428707  LUMO = 0.248659070203856
  beta  nocc = 71  HOMO = 0.0205162126106958  LUMO = 0.243731420461608
cycle= 19 E= -2649.99178389726  delta_E= -0.000183  |g|= 0.00308  |ddm|= 0.068
  alpha nocc = 72  HOMO = 0.0254331294387807  LUMO = 0.248471373816629
  beta  nocc = 71  HOMO = 0.019851241504496  LUMO = 0.246128164076112
cycle= 20 E= -2649.99215430494  delta_E= -0.00037  |g|= 0.0032  |ddm|= 0.157
  alpha nocc = 72  HOMO = 0.0256325645380064  LUMO = 0.248308846597012
  beta  nocc = 71  HOMO = 0.019514730794913  LUMO = 0.245464606419876
cycle= 21 E= -2649.99221839296  delta_E= -6.41e-05  |g|= 0.00202  |ddm|= 0.0466
  alpha nocc = 72  HOMO = 0.025369186834293  LUMO = 0.248527503208978
  beta  nocc = 71  HOMO = 0.0188646956818789  LUMO = 0.24614342499955
cycle= 22 E= -2649.99228258799  delta_E= -6.42e-05  |g|= 0.00194  |ddm|= 0.037
  alpha nocc = 72  HOMO = 0.0252803050237157  LUMO = 0.24841850212432
  beta  nocc = 71  HOMO = 0.0190305973483917  LUMO = 0.245778623717212
cycle= 23 E= -2649.99232384692  delta_E= -4.13e-05  |g|= 0.00186  |ddm|= 0.0207
  alpha nocc = 72  HOMO = 0.0249105801374155  LUMO = 0.248633285474675
  beta  nocc = 71  HOMO = 0.0185570406369591  LUMO = 0.24606060044061
cycle= 24 E= -2649.99239927271  delta_E= -7.54e-05  |g|= 0.00176  |ddm|= 0.0394
  alpha nocc = 72  HOMO = 0.024190573129201  LUMO = 0.248910348830024
  beta  nocc = 71  HOMO = 0.0180207897628352  LUMO = 0.246064246929541
cycle= 25 E= -2649.99254567324  delta_E= -0.000146  |g|= 0.00156  |ddm|= 0.0836
  alpha nocc = 72  HOMO = 0.0230083007540042  LUMO = 0.249501504258143
  beta  nocc = 71  HOMO = 0.017125504125397  LUMO = 0.246498208733789
cycle= 26 E= -2649.99268144893  delta_E= -0.000136  |g|= 0.00134  |ddm|= 0.0984
  alpha nocc = 72  HOMO = 0.0234426737227061  LUMO = 0.249629447234774
  beta  nocc = 71  HOMO = 0.0171278024551958  LUMO = 0.247060996001808
cycle= 27 E= -2649.9927408551  delta_E= -5.94e-05  |g|= 0.00107  |ddm|= 0.063
  alpha nocc = 72  HOMO = 0.0235810282618566  LUMO = 0.249304661094985
  beta  nocc = 71  HOMO = 0.0173038880592384  LUMO = 0.24720317491814
cycle= 28 E= -2649.99276056361  delta_E= -1.97e-05  |g|= 0.000699  |ddm|= 0.0289
  alpha nocc = 72  HOMO = 0.0240639682643731  LUMO = 0.25029366218294
  beta  nocc = 71  HOMO = 0.01738539897836  LUMO = 0.247575688954447
cycle= 29 E= -2649.99277744745  delta_E= -1.69e-05  |g|= 0.000609  |ddm|= 0.0612
  alpha nocc = 72  HOMO = 0.0237171477355592  LUMO = 0.249134826799185
  beta  nocc = 71  HOMO = 0.0172751133567917  LUMO = 0.247376736276272
cycle= 30 E= -2649.9927726415  delta_E= 4.81e-06  |g|= 0.000505  |ddm|= 0.0413
  alpha nocc = 72  HOMO = 0.0240607643567088  LUMO = 0.249966809071897
  beta  nocc = 71  HOMO = 0.0173959296338946  LUMO = 0.247662765718999
cycle= 31 E= -2649.99278130582  delta_E= -8.66e-06  |g|= 0.000424  |ddm|= 0.0427
  alpha nocc = 72  HOMO = 0.0240457703106864  LUMO = 0.249884286709671
  beta  nocc = 71  HOMO = 0.0173693029967503  LUMO = 0.247648667968864
cycle= 32 E= -2649.99278210325  delta_E= -7.97e-07  |g|= 0.00041  |ddm|= 0.00304
  alpha nocc = 72  HOMO = 0.0240050580554578  LUMO = 0.249701925682519
  beta  nocc = 71  HOMO = 0.0173455730492451  LUMO = 0.247632239746792
cycle= 33 E= -2649.99278267123  delta_E= -5.68e-07  |g|= 0.0004  |ddm|= 0.00771
  alpha nocc = 72  HOMO = 0.0239279567325544  LUMO = 0.249721354366257
  beta  nocc = 71  HOMO = 0.0173762218325282  LUMO = 0.247541308299869
cycle= 34 E= -2649.99278013151  delta_E= 2.54e-06  |g|= 0.000365  |ddm|= 0.0066
  alpha nocc = 72  HOMO = 0.0238380258840125  LUMO = 0.249672990555596
  beta  nocc = 71  HOMO = 0.0174075188554427  LUMO = 0.247470545294907
cycle= 35 E= -2649.99277854252  delta_E= 1.59e-06  |g|= 0.000354  |ddm|= 0.0056
  alpha nocc = 72  HOMO = 0.0236727298478794  LUMO = 0.249710491740292
  beta  nocc = 71  HOMO = 0.0175121081128057  LUMO = 0.247347047288056
cycle= 36 E= -2649.99277587277  delta_E= 2.67e-06  |g|= 0.000264  |ddm|= 0.0139
  alpha nocc = 72  HOMO = 0.0235750594688964  LUMO = 0.249666924082003
  beta  nocc = 71  HOMO = 0.0175349590589564  LUMO = 0.24727603520329
cycle= 37 E= -2649.99277502457  delta_E= 8.48e-07  |g|= 0.000225  |ddm|= 0.00567
  alpha nocc = 72  HOMO = 0.0234764120792326  LUMO = 0.249628243953847
  beta  nocc = 71  HOMO = 0.0175953697212529  LUMO = 0.247231916594349
cycle= 38 E= -2649.99277446028  delta_E= 5.64e-07  |g|= 0.000141  |ddm|= 0.0065
  alpha nocc = 72  HOMO = 0.0234471213026232  LUMO = 0.24962194399214
  beta  nocc = 71  HOMO = 0.0176251863135582  LUMO = 0.247242890894601
cycle= 39 E= -2649.99277443242  delta_E= 2.79e-08  |g|= 0.000109  |ddm|= 0.00315
  alpha nocc = 72  HOMO = 0.0234277580269448  LUMO = 0.249613980147695
  beta  nocc = 71  HOMO = 0.0176083296636968  LUMO = 0.24724798083664
cycle= 40 E= -2649.99277448616  delta_E= -5.37e-08  |g|= 8.57e-05  |ddm|= 0.00158
  alpha nocc = 72  HOMO = 0.0234310053220936  LUMO = 0.249610849347686
  beta  nocc = 71  HOMO = 0.0176094664510928  LUMO = 0.247274718548332
cycle= 41 E= -2649.99277456313  delta_E= -7.7e-08  |g|= 5.51e-05  |ddm|= 0.00183
  alpha nocc = 72  HOMO = 0.0234286961854454  LUMO = 0.24960990110907
  beta  nocc = 71  HOMO = 0.0176024632689238  LUMO = 0.247281284786931
cycle= 42 E= -2649.99277459662  delta_E= -3.35e-08  |g|= 4.1e-05  |ddm|= 0.00132
  alpha nocc = 72  HOMO = 0.0234279928010279  LUMO = 0.249608247617249
  beta  nocc = 71  HOMO = 0.0175978581369618  LUMO = 0.247285552639882
cycle= 43 E= -2649.99277461208  delta_E= -1.55e-08  |g|= 3.24e-05  |ddm|= 0.000767
  alpha nocc = 72  HOMO = 0.0234313047128235  LUMO = 0.249608471275374
  beta  nocc = 71  HOMO = 0.0175970762585732  LUMO = 0.24728906382194
cycle= 44 E= -2649.99277461878  delta_E= -6.7e-09  |g|= 2.87e-05  |ddm|= 0.000443
  alpha nocc = 72  HOMO = 0.0234266106275444  LUMO = 0.24960627481576
  beta  nocc = 71  HOMO = 0.0175958360115577  LUMO = 0.247289274240692
cycle= 45 E= -2649.99277462627  delta_E= -7.5e-09  |g|= 2.39e-05  |ddm|= 0.000475
  alpha nocc = 72  HOMO = 0.0234243693334589  LUMO = 0.249605575160739
  beta  nocc = 71  HOMO = 0.017595838810278  LUMO = 0.247289326818598
cycle= 46 E= -2649.99277462984  delta_E= -3.56e-09  |g|= 2.26e-05  |ddm|= 0.000172
  alpha nocc = 72  HOMO = 0.0234224776776295  LUMO = 0.249604374094127
  beta  nocc = 71  HOMO = 0.0175958923273967  LUMO = 0.247290044858084
cycle= 47 E= -2649.99277463529  delta_E= -5.45e-09  |g|= 1.92e-05  |ddm|= 0.000252
  alpha nocc = 72  HOMO = 0.0234212360902551  LUMO = 0.249603649668594
  beta  nocc = 71  HOMO = 0.0175954641251823  LUMO = 0.247289401671962
cycle= 48 E= -2649.9927746393  delta_E= -4.02e-09  |g|= 1.85e-05  |ddm|= 0.000194
  alpha nocc = 72  HOMO = 0.0234183997339249  LUMO = 0.249602264494638
  beta  nocc = 71  HOMO = 0.0175941712322617  LUMO = 0.247288759547537
cycle= 49 E= -2649.9927746448  delta_E= -5.49e-09  |g|= 1.8e-05  |ddm|= 0.00028
  alpha nocc = 72  HOMO = 0.023417118596028  LUMO = 0.249601731949337
  beta  nocc = 71  HOMO = 0.0175932122918166  LUMO = 0.247287699309996
cycle= 50 E= -2649.99277464866  delta_E= -3.86e-09  |g|= 1.78e-05  |ddm|= 0.000201
SCF not converged.
SCF energy = -2649.99277464866 after 50 cycles  <S^2> = 1.3995157  2S+1 = 2.5686695
