#INFO: **** input file is /home/ltkoanh/Al_B2LYP_6311_Gd_Cluster/Cluster/Al16-cation-doublet/input.py ****
import numpy
from pyscf import gto, scf, dft, mp, cc
from pyscf.mp import uobmp2_mom_conv, dfuobmp2_mom_conv, uhf_mom
from pyscf.mp import  mp2, ump2
from pyscf.tools import molden
import os
from functools import reduce


mol = gto.Mole()
geom = os.environ.get('geom_txt')
mol.atom = geom
mol.basis = os.environ.get('basis', 'cc-pvdz')
mol.unit = 'A'
mol.charge = int(os.environ.get('charge', 0))
mol.spin = int(os.environ.get('spin', 0))
mol.verbose = 4
mol.build()

#################### Ground state using density fitting
### Hartree-Fock
a  = scf.UHF(mol).density_fit()
a.kernel()

### Ground state OBMP2 calculation
ob = dfuobmp2_mom_conv.DFUOBMP2(a)
ob.second_order = True
ob.thresh = 10e-6
ob.css = 1
ob.cos = 1
e_obmp2g = ob.kernel()

### Ground state O2BMP2 calculation
ob = dfuobmp2_mom_conv.DFUOBMP2(a)
ob.second_order = True
ob.thresh = 10e-6
ob.css = 0                             
ob.cos = 1.2                             
e_o2bmp2g = ob.kernel()  

#################### Ground state NOT using density fitting
### Hartree-Fock
a  = scf.UHF(mol)
a.kernel()

### Ground state OBMP2 calculation
ob = uobmp2_mom_conv.UOBMP2(a)
ob.second_order = True
ob.thresh = 10e-6
ob.css = 1
ob.cos = 1
#e_obmp2g = ob.kernel()

### Ground state O2BMP2 calculation
ob = uobmp2_mom_conv.UOBMP2(a)
ob.second_order = True
ob.thresh = 10e-6
ob.css = 0
ob.cos = 1.2   ## the cos can be vary ...                        	 
#e_o2bmp2g = ob.kernel()


## Results from density-fitting approximate with non-using density fitting 
## check results between df and non-df with small molecules before running the important molecules
#INFO: ******************** input file end ********************


System: uname_result(system='Linux', node='comphys', release='3.10.0-1160.119.1.el7.x86_64', version='#1 SMP Tue Jun 4 14:43:51 UTC 2024', machine='x86_64', processor='x86_64')  Threads 8
Python 3.7.9 (default, Dec  4 2023, 13:00:18) 
[GCC 4.8.5 20150623 (Red Hat 4.8.5-44)]
numpy 1.21.6  scipy 1.7.3
Date: Tue May 27 19:54:41 2025
PySCF version 1.7.0
PySCF path  /share/installs/pyscf/pyscf
GIT HEAD      ref: refs/heads/ob-mp2
GIT ob-mp2 branch  f0fc63383ab6c719c0c91f5e07a6895c637b700d

[CONFIG] conf_file None
[INPUT] verbose = 4
[INPUT] num. atoms = 16
[INPUT] num. electrons = 207
[INPUT] charge = 1
[INPUT] spin (= nelec alpha-beta = 2S) = 1
[INPUT] symmetry False subgroup None
[INPUT] Mole.unit = A
[INPUT]  1 Al     1.530418000000  -2.009970000000   0.000000000000 AA    2.892070876105  -3.798292818592   0.000000000000 Bohr
[INPUT]  2 Al    -0.859868000000  -1.640395000000   1.582664000000 AA   -1.624915023278  -3.099897286106   2.990801507209 Bohr
[INPUT]  3 Al     2.878313000000   0.372020000000   0.000000000000 AA    5.439223270775   0.703015912861   0.000000000000 Bohr
[INPUT]  4 Al    -2.481002000000  -0.006784000000   0.000000000000 AA   -4.688414294498  -0.012819902029   0.000000000000 Bohr
[INPUT]  5 Al    -1.089029000000   0.957224000000   2.267744000000 AA   -2.057966551709   1.808891199861   4.285415080626 Bohr
[INPUT]  6 Al     1.424635000000  -0.499443000000  -2.296922000000 AA    2.692169977470  -0.943810484831  -4.340553509488 Bohr
[INPUT]  7 Al     1.424635000000  -0.499443000000   2.296922000000 AA    2.692169977470  -0.943810484831   4.340553509488 Bohr
[INPUT]  8 Al    -0.859868000000  -1.640395000000  -1.582664000000 AA   -1.624915023278  -3.099897286106  -2.990801507209 Bohr
[INPUT]  9 Al     1.424635000000   2.091493000000  -1.899200000000 AA    2.692169977470   3.952348961445  -3.588967855774 Bohr
[INPUT] 10 Al    -1.631593000000   2.521536000000   0.000000000000 AA   -3.083263916757   4.765012453231   0.000000000000 Bohr
[INPUT] 11 Al    -1.089029000000   0.957224000000  -2.267744000000 AA   -2.057966551709   1.808891199861  -4.285415080626 Bohr
[INPUT] 12 Al     1.424635000000   2.091493000000   1.899200000000 AA    2.692169977470   3.952348961445   3.588967855774 Bohr
[INPUT] 13 Al    -0.328870000000  -3.975443000000   0.000000000000 AA   -0.621474230586  -7.512498493819   0.000000000000 Bohr
[INPUT] 14 Al     0.714289000000   3.679022000000   0.000000000000 AA    1.349810583789   6.952343986250   0.000000000000 Bohr
[INPUT] 15 Al    -2.708203000000  -2.893413000000   0.000000000000 AA   -5.117761959725  -5.467758135256   0.000000000000 Bohr
[INPUT] 16 Al     0.225902000000   0.495273000000   0.000000000000 AA    0.426892910991   0.935930326892   0.000000000000 Bohr

nuclear repulsion = 2888.08675078435
number of shells = 80
number of NR pGTOs = 864
number of NR cGTOs = 144
basis = sto-6g
ecp = {}
CPU time:         1.40


******** <class 'pyscf.df.df_jk.density_fit.<locals>.DFHF'> ********
method = DFHF-UHF
initial guess = minao
damping factor = 0
level_shift factor = 0
DIIS = <class 'pyscf.scf.diis.CDIIS'>
diis_start_cycle = 1
diis_space = 8
SCF conv_tol = 1e-09
SCF conv_tol_grad = None
SCF max_cycles = 50
direct_scf = True
direct_scf_tol = 1e-13
chkfile to save SCF result = /home/ltkoanh/Al_B2LYP_6311_Gd_Cluster/Cluster/Al16-cation-doublet/tmp6emnma8e
max_memory 4000 MB (current use 60 MB)
number electrons alpha = 104  beta = 103
Set gradient conv threshold to 3.16228e-05
******** <class 'pyscf.df.df.DF'> ********
auxbasis = None
max_memory = 4000
_cderi_to_save = /home/ltkoanh/Al_B2LYP_6311_Gd_Cluster/Cluster/Al16-cation-doublet/tmpcavbsx4w
Even tempered Gaussians are generated as DF auxbasis for  Al
init E= -3858.2017750498
  alpha nocc = 104  HOMO = -0.274866560978548  LUMO = -0.262540192606849
  beta  nocc = 103  HOMO = -0.297554711529611  LUMO = -0.274866560978548

WARN: system HOMO -0.274866560978548 >= system LUMO -0.274866560978548

cycle= 1 E= -3854.59997859521  delta_E=  3.6  |g|= 0.332  |ddm|= 4.51
  alpha nocc = 104  HOMO = -0.0517776141938243  LUMO = 0.0623668391511498
  beta  nocc = 103  HOMO = -0.0496965790946066  LUMO = 0.0696505831394213
cycle= 2 E= -3854.6180745303  delta_E= -0.0181  |g|= 0.337  |ddm|= 1.23
  alpha nocc = 104  HOMO = -0.104992116094284  LUMO = 0.0586937065213444
  beta  nocc = 103  HOMO = -0.104222411618414  LUMO = 0.0616586715728496
cycle= 3 E= -3854.71428844227  delta_E= -0.0962  |g|= 0.0883  |ddm|= 0.636
  alpha nocc = 104  HOMO = -0.113711055557759  LUMO = 0.0538456425979305
  beta  nocc = 103  HOMO = -0.108751471309191  LUMO = 0.0606976254898074
cycle= 4 E= -3854.72191108155  delta_E= -0.00762  |g|= 0.0546  |ddm|= 0.232
  alpha nocc = 104  HOMO = -0.116171955344857  LUMO = 0.0574900570619221
  beta  nocc = 103  HOMO = -0.111953774626717  LUMO = 0.0629160610201066
cycle= 5 E= -3854.72790451157  delta_E= -0.00599  |g|= 0.0202  |ddm|= 0.192
  alpha nocc = 104  HOMO = -0.115782582573909  LUMO = 0.0586971704952558
  beta  nocc = 103  HOMO = -0.111934104505693  LUMO = 0.0641500517809352
cycle= 6 E= -3854.73019643072  delta_E= -0.00229  |g|= 0.0176  |ddm|= 0.152
  alpha nocc = 104  HOMO = -0.115614043677265  LUMO = 0.059793469177939
  beta  nocc = 103  HOMO = -0.111392390004941  LUMO = 0.0652026562290692
cycle= 7 E= -3854.7312648515  delta_E= -0.00107  |g|= 0.0128  |ddm|= 0.0832
  alpha nocc = 104  HOMO = -0.115690287959064  LUMO = 0.0609958803041333
  beta  nocc = 103  HOMO = -0.111211829569145  LUMO = 0.0656659990843211
cycle= 8 E= -3854.73244854804  delta_E= -0.00118  |g|= 0.0107  |ddm|= 0.105
  alpha nocc = 104  HOMO = -0.115717482086108  LUMO = 0.0616313172662962
  beta  nocc = 103  HOMO = -0.110752818935234  LUMO = 0.066009562759521
cycle= 9 E= -3854.7332880993  delta_E= -0.00084  |g|= 0.0106  |ddm|= 0.0764
  alpha nocc = 104  HOMO = -0.115490714924209  LUMO = 0.0613512201568355
  beta  nocc = 103  HOMO = -0.11086164467754  LUMO = 0.0659231019676862
cycle= 10 E= -3854.73281463398  delta_E= 0.000473  |g|= 0.0103  |ddm|= 0.0434
  alpha nocc = 104  HOMO = -0.114675957619494  LUMO = 0.0605054221365327
  beta  nocc = 103  HOMO = -0.111706860878585  LUMO = 0.0664209012061056
cycle= 11 E= -3854.73089941379  delta_E= 0.00192  |g|= 0.00846  |ddm|= 0.212
  alpha nocc = 104  HOMO = -0.11332552510863  LUMO = 0.0597337399664382
  beta  nocc = 103  HOMO = -0.112039646591239  LUMO = 0.0670793380881722
cycle= 12 E= -3854.72985115979  delta_E= 0.00105  |g|= 0.0067  |ddm|= 0.208
  alpha nocc = 104  HOMO = -0.1132401733407  LUMO = 0.0582998750870817
  beta  nocc = 103  HOMO = -0.112437272749931  LUMO = 0.0661464888054621
cycle= 13 E= -3854.72987206716  delta_E= -2.09e-05  |g|= 0.00599  |ddm|= 0.0798
  alpha nocc = 104  HOMO = -0.112853260143621  LUMO = 0.0580495481606035
  beta  nocc = 103  HOMO = -0.112329750000329  LUMO = 0.0660973846892684
cycle= 14 E= -3854.72994394391  delta_E= -7.19e-05  |g|= 0.00498  |ddm|= 0.0438
  alpha nocc = 104  HOMO = -0.112699727824963  LUMO = 0.0583738076980527
  beta  nocc = 103  HOMO = -0.112305996784569  LUMO = 0.066383852343567
cycle= 15 E= -3854.73009472015  delta_E= -0.000151  |g|= 0.00475  |ddm|= 0.0403
  alpha nocc = 104  HOMO = -0.112810755116566  LUMO = 0.0582673489784085
  beta  nocc = 103  HOMO = -0.112352892849917  LUMO = 0.0662705319792836
cycle= 16 E= -3854.73022290357  delta_E= -0.000128  |g|= 0.00463  |ddm|= 0.0295
  alpha nocc = 104  HOMO = -0.112814812089605  LUMO = 0.0582762281152361
  beta  nocc = 103  HOMO = -0.112283307794157  LUMO = 0.0662702439994128
cycle= 17 E= -3854.73028981813  delta_E= -6.69e-05  |g|= 0.00465  |ddm|= 0.0134
  alpha nocc = 104  HOMO = -0.11280266872485  LUMO = 0.0581952160416144
  beta  nocc = 103  HOMO = -0.112301106758918  LUMO = 0.0662171747376208
cycle= 18 E= -3854.73023854343  delta_E= 5.13e-05  |g|= 0.00463  |ddm|= 0.0106
  alpha nocc = 104  HOMO = -0.112698082501514  LUMO = 0.0581270523979893
  beta  nocc = 103  HOMO = -0.112475982726971  LUMO = 0.0662592115040132
cycle= 19 E= -3854.73001627759  delta_E= 0.000222  |g|= 0.00431  |ddm|= 0.0508
  alpha nocc = 104  HOMO = -0.112637320526607  LUMO = 0.0579868488555476
  beta  nocc = 103  HOMO = -0.112579437010178  LUMO = 0.0662723762399517
cycle= 20 E= -3854.72988906488  delta_E= 0.000127  |g|= 0.00402  |ddm|= 0.0496
  alpha nocc = 104  HOMO = -0.112582056318905  LUMO = 0.0580104087769132
  beta  nocc = 103  HOMO = -0.11249264129289  LUMO = 0.0663960282928188
cycle= 21 E= -3854.72992170576  delta_E= -3.26e-05  |g|= 0.00386  |ddm|= 0.0291
  alpha nocc = 104  HOMO = -0.112570265749707  LUMO = 0.0580312139921331
  beta  nocc = 103  HOMO = -0.112251377210346  LUMO = 0.0664814815851392
cycle= 22 E= -3854.73004745112  delta_E= -0.000126  |g|= 0.00383  |ddm|= 0.0378
  alpha nocc = 104  HOMO = -0.112731304913278  LUMO = 0.0580573947751419
  beta  nocc = 103  HOMO = -0.112232061717025  LUMO = 0.0664457029111419
cycle= 23 E= -3854.73010940722  delta_E= -6.2e-05  |g|= 0.00384  |ddm|= 0.0188
  alpha nocc = 104  HOMO = -0.112785658985101  LUMO = 0.0580784640211933
  beta  nocc = 103  HOMO = -0.112160052821939  LUMO = 0.066431150506878
cycle= 24 E= -3854.73016857806  delta_E= -5.92e-05  |g|= 0.00381  |ddm|= 0.0149
  alpha nocc = 104  HOMO = -0.11279942641251  LUMO = 0.058055825728408
  beta  nocc = 103  HOMO = -0.112184970031073  LUMO = 0.0663916274881878
cycle= 25 E= -3854.7301746685  delta_E= -6.09e-06  |g|= 0.00382  |ddm|= 0.00659
  alpha nocc = 104  HOMO = -0.112799358406167  LUMO = 0.0580554727594302
  beta  nocc = 103  HOMO = -0.112196509784674  LUMO = 0.0663893927226196
cycle= 26 E= -3854.73016562864  delta_E= 9.04e-06  |g|= 0.00382  |ddm|= 0.00313
  alpha nocc = 104  HOMO = -0.11278378400752  LUMO = 0.058062502322741
  beta  nocc = 103  HOMO = -0.112186697369309  LUMO = 0.0663947849155682
cycle= 27 E= -3854.73017148106  delta_E= -5.85e-06  |g|= 0.00383  |ddm|= 0.00351
  alpha nocc = 104  HOMO = -0.112761401220326  LUMO = 0.0580386058282386
  beta  nocc = 103  HOMO = -0.112231740819722  LUMO = 0.0664054821157693
cycle= 28 E= -3854.7301324523  delta_E= 3.9e-05  |g|= 0.00383  |ddm|= 0.0131
  alpha nocc = 104  HOMO = -0.112768722178792  LUMO = 0.0580312174862723
  beta  nocc = 103  HOMO = -0.112229233912584  LUMO = 0.0663921278386628
cycle= 29 E= -3854.73013021642  delta_E= 2.24e-06  |g|= 0.00382  |ddm|= 0.00449
  alpha nocc = 104  HOMO = -0.112831359293956  LUMO = 0.0580392930746298
  beta  nocc = 103  HOMO = -0.112172185666753  LUMO = 0.066343929716037
cycle= 30 E= -3854.73017362644  delta_E= -4.34e-05  |g|= 0.00379  |ddm|= 0.0146
  alpha nocc = 104  HOMO = -0.112990381343317  LUMO = 0.0581506237756993
  beta  nocc = 103  HOMO = -0.111952311851667  LUMO = 0.0662467250561404
cycle= 31 E= -3854.73030420408  delta_E= -0.000131  |g|= 0.00377  |ddm|= 0.0392
  alpha nocc = 104  HOMO = -0.113163373843297  LUMO = 0.0582392784770228
  beta  nocc = 103  HOMO = -0.111864292357409  LUMO = 0.0662005613144519
cycle= 32 E= -3854.73041151441  delta_E= -0.000107  |g|= 0.0038  |ddm|= 0.029
  alpha nocc = 104  HOMO = -0.113144950758784  LUMO = 0.0582342609383031
  beta  nocc = 103  HOMO = -0.11187661958621  LUMO = 0.0662081481060413
cycle= 33 E= -3854.73039878132  delta_E= 1.27e-05  |g|= 0.00381  |ddm|= 0.00341
  alpha nocc = 104  HOMO = -0.113076404721063  LUMO = 0.0581905675401543
  beta  nocc = 103  HOMO = -0.111941786152373  LUMO = 0.0662264652241903
cycle= 34 E= -3854.7303489517  delta_E= 4.98e-05  |g|= 0.00378  |ddm|= 0.0132
  alpha nocc = 104  HOMO = -0.113085208719775  LUMO = 0.0582218773493824
  beta  nocc = 103  HOMO = -0.111942796013107  LUMO = 0.066236831084759
cycle= 35 E= -3854.73035030088  delta_E= -1.35e-06  |g|= 0.00376  |ddm|= 0.01
  alpha nocc = 104  HOMO = -0.113082658208424  LUMO = 0.0582125710334071
  beta  nocc = 103  HOMO = -0.111941872556279  LUMO = 0.0662163421565258
cycle= 36 E= -3854.73035110819  delta_E= -8.07e-07  |g|= 0.00375  |ddm|= 0.00348
  alpha nocc = 104  HOMO = -0.113089708503358  LUMO = 0.0582308400025574
  beta  nocc = 103  HOMO = -0.111922931306653  LUMO = 0.066202643688132
cycle= 37 E= -3854.73035994402  delta_E= -8.84e-06  |g|= 0.00374  |ddm|= 0.00694
  alpha nocc = 104  HOMO = -0.113088931762619  LUMO = 0.0582277890096938
  beta  nocc = 103  HOMO = -0.111922934988879  LUMO = 0.0661965629303471
cycle= 38 E= -3854.73036560148  delta_E= -5.66e-06  |g|= 0.00375  |ddm|= 0.00507
  alpha nocc = 104  HOMO = -0.113138609393224  LUMO = 0.0582149884090398
  beta  nocc = 103  HOMO = -0.111885970144099  LUMO = 0.0661605069696394
cycle= 39 E= -3854.73037326145  delta_E= -7.66e-06  |g|= 0.00368  |ddm|= 0.0198
  alpha nocc = 104  HOMO = -0.11336178866979  LUMO = 0.0583806039860546
  beta  nocc = 103  HOMO = -0.111646675591529  LUMO = 0.0660596954199994
cycle= 40 E= -3854.73052506864  delta_E= -0.000152  |g|= 0.0036  |ddm|= 0.0622
  alpha nocc = 104  HOMO = -0.113622478949632  LUMO = 0.0588319239975432
  beta  nocc = 103  HOMO = -0.111353539689926  LUMO = 0.0661285029862921
cycle= 41 E= -3854.7307314909  delta_E= -0.000206  |g|= 0.00351  |ddm|= 0.0777
  alpha nocc = 104  HOMO = -0.113787482566597  LUMO = 0.0589751910064149
  beta  nocc = 103  HOMO = -0.111226941055716  LUMO = 0.0660803941089071
cycle= 42 E= -3854.73084198608  delta_E= -0.00011  |g|= 0.00353  |ddm|= 0.0369
  alpha nocc = 104  HOMO = -0.113932052088722  LUMO = 0.0591159258494572
  beta  nocc = 103  HOMO = -0.111123223277265  LUMO = 0.06607388929047
cycle= 43 E= -3854.73093903729  delta_E= -9.71e-05  |g|= 0.00345  |ddm|= 0.0311
  alpha nocc = 104  HOMO = -0.114011750095034  LUMO = 0.0591715883598753
  beta  nocc = 103  HOMO = -0.111041475068444  LUMO = 0.066026728422051
cycle= 44 E= -3854.73101103306  delta_E= -7.2e-05  |g|= 0.00346  |ddm|= 0.022
  alpha nocc = 104  HOMO = -0.114025048108459  LUMO = 0.0591845292513473
  beta  nocc = 103  HOMO = -0.11103845296918  LUMO = 0.0660192988540631
cycle= 45 E= -3854.7310177465  delta_E= -6.71e-06  |g|= 0.00346  |ddm|= 0.0026
  alpha nocc = 104  HOMO = -0.114023840947706  LUMO = 0.0591615050170388
  beta  nocc = 103  HOMO = -0.111031527623731  LUMO = 0.0660075198444019
cycle= 46 E= -3854.73102123726  delta_E= -3.49e-06  |g|= 0.00346  |ddm|= 0.00127
  alpha nocc = 104  HOMO = -0.114009865237338  LUMO = 0.0591357135861923
  beta  nocc = 103  HOMO = -0.111039528631049  LUMO = 0.0660104941378851
cycle= 47 E= -3854.73101784519  delta_E= 3.39e-06  |g|= 0.00347  |ddm|= 0.00869
  alpha nocc = 104  HOMO = -0.114019420760024  LUMO = 0.0592343655565962
  beta  nocc = 103  HOMO = -0.111036428675593  LUMO = 0.0660663474301573
cycle= 48 E= -3854.73101430376  delta_E= 3.54e-06  |g|= 0.00345  |ddm|= 0.00476
  alpha nocc = 104  HOMO = -0.114040438470747  LUMO = 0.0591276138953607
  beta  nocc = 103  HOMO = -0.111027809221918  LUMO = 0.0659863536938418
cycle= 49 E= -3854.73102260308  delta_E= -8.3e-06  |g|= 0.00347  |ddm|= 0.00282
  alpha nocc = 104  HOMO = -0.114014873540965  LUMO = 0.0592874193326476
  beta  nocc = 103  HOMO = -0.111038326548435  LUMO = 0.0661081784361489
cycle= 50 E= -3854.73103423023  delta_E= -1.16e-05  |g|= 0.00337  |ddm|= 0.0229
SCF not converged.
SCF energy = -3854.73103423023 after 50 cycles  <S^2> = 0.95262317  2S+1 = 2.1932835
shift = 0
thresh = 1e-05 
eri1 (1808, 10440)
eri1 (1808, 10440)
    CPU time for making amplitude: integral transform      2.07 sec, wall time      0.18 sec
shape (1808, 5760)
1st memory: 1045.9 MiB
eri1 (1808, 10440)
eri1 (1808, 10440)
2nd memory: 738.9 MiB

========================
iter = 0  energy = -3855.774630 energy diff = 3855.774630
multiplicity <S^2> : Reference = 0.95262317 Response = 0.95304424 Projector = 0.95346531
eri1 (1808, 10440)
eri1 (1808, 10440)
    CPU time for making amplitude: integral transform      2.26 sec, wall time      0.21 sec
shape (1808, 5760)
1st memory: 1096.3 MiB
eri1 (1808, 10440)
eri1 (1808, 10440)
2nd memory: 737.5 MiB

========================
iter = 1  energy = -3855.776498 energy diff = 0.001868
multiplicity <S^2> : Reference = 0.87305631 Response = 0.8729618 Projector = 0.87286728
eri1 (1808, 10440)
eri1 (1808, 10440)
    CPU time for making amplitude: integral transform      2.27 sec, wall time      0.21 sec
shape (1808, 5760)
1st memory: 1094.9 MiB
eri1 (1808, 10440)
eri1 (1808, 10440)
2nd memory: 741.7 MiB

========================
iter = 2  energy = -3855.786253 energy diff = 0.009756
multiplicity <S^2> : Reference = 0.83982172 Response = 0.8398453 Projector = 0.83986887
eri1 (1808, 10440)
eri1 (1808, 10440)
    CPU time for making amplitude: integral transform      2.25 sec, wall time      0.21 sec
shape (1808, 5760)
1st memory: 1099.0 MiB
eri1 (1808, 10440)
eri1 (1808, 10440)
2nd memory: 744.4 MiB

========================
iter = 3  energy = -3855.791122 energy diff = 0.004868
multiplicity <S^2> : Reference = 0.81448663 Response = 0.81447204 Projector = 0.81445745
eri1 (1808, 10440)
eri1 (1808, 10440)
    CPU time for making amplitude: integral transform      2.15 sec, wall time      0.19 sec
shape (1808, 5760)
1st memory: 1101.8 MiB
eri1 (1808, 10440)
eri1 (1808, 10440)
2nd memory: 745.8 MiB

========================
iter = 4  energy = -3855.794448 energy diff = 0.003326
multiplicity <S^2> : Reference = 0.78973671 Response = 0.78969805 Projector = 0.7896594
eri1 (1808, 10440)
eri1 (1808, 10440)
    CPU time for making amplitude: integral transform      2.14 sec, wall time      0.19 sec
shape (1808, 5760)
1st memory: 1103.1 MiB
eri1 (1808, 10440)
eri1 (1808, 10440)
2nd memory: 752.0 MiB

========================
iter = 5  energy = -3855.795368 energy diff = 0.000920
multiplicity <S^2> : Reference = 0.78228615 Response = 0.78218142 Projector = 0.78207668
eri1 (1808, 10440)
eri1 (1808, 10440)
    CPU time for making amplitude: integral transform      2.01 sec, wall time      0.18 sec
shape (1808, 5760)
1st memory: 1049.1 MiB
eri1 (1808, 10440)
eri1 (1808, 10440)
2nd memory: 751.9 MiB

========================
iter = 6  energy = -3855.795835 energy diff = 0.000467
multiplicity <S^2> : Reference = 0.77647639 Response = 0.77647493 Projector = 0.77647347
eri1 (1808, 10440)
eri1 (1808, 10440)
    CPU time for making amplitude: integral transform      2.02 sec, wall time      0.18 sec
shape (1808, 5760)
1st memory: 1109.3 MiB
eri1 (1808, 10440)
eri1 (1808, 10440)
2nd memory: 745.0 MiB

========================
iter = 7  energy = -3855.795991 energy diff = 0.000156
multiplicity <S^2> : Reference = 0.77432159 Response = 0.77437209 Projector = 0.77442259
eri1 (1808, 10440)
eri1 (1808, 10440)
    CPU time for making amplitude: integral transform      2.14 sec, wall time      0.19 sec
shape (1808, 5760)
1st memory: 1050.4 MiB
eri1 (1808, 10440)
eri1 (1808, 10440)
2nd memory: 751.2 MiB

========================
iter = 8  energy = -3855.796056 energy diff = 0.000066
multiplicity <S^2> : Reference = 0.77357384 Response = 0.77360427 Projector = 0.77363469
eri1 (1808, 10440)
eri1 (1808, 10440)
    CPU time for making amplitude: integral transform      2.12 sec, wall time      0.19 sec
shape (1808, 5760)
1st memory: 1108.6 MiB
eri1 (1808, 10440)
eri1 (1808, 10440)
2nd memory: 749.8 MiB

========================
iter = 9  energy = -3855.796069 energy diff = 0.000013
multiplicity <S^2> : Reference = 0.7736461 Response = 0.77368435 Projector = 0.7737226
eri1 (1808, 10440)
eri1 (1808, 10440)
    CPU time for making amplitude: integral transform      2.27 sec, wall time      0.21 sec
shape (1808, 5760)
1st memory: 1106.3 MiB
eri1 (1808, 10440)
eri1 (1808, 10440)
2nd memory: 749.8 MiB

========================
iter = 10  energy = -3855.796063 energy diff = 0.000005
multiplicity <S^2> : Reference = 0.77386515 Response = 0.77392518 Projector = 0.7739852

UOB-MP2 has converged
UOB-MP2 energy =  -3855.7960634172628
shift = 0
thresh = 1e-05 
eri1 (1808, 10440)
eri1 (1808, 10440)
    CPU time for making amplitude: integral transform      2.09 sec, wall time      0.19 sec
shape (1808, 5760)
1st memory: 1045.6 MiB
eri1 (1808, 10440)
eri1 (1808, 10440)
2nd memory: 744.3 MiB

========================
iter = 0  energy = -3855.413341 energy diff = 3855.413341
multiplicity <S^2> : Reference = 0.95262317 Response = 0.95304424 Projector = 0.95346531
eri1 (1808, 10440)
eri1 (1808, 10440)
    CPU time for making amplitude: integral transform      2.12 sec, wall time      0.19 sec
shape (1808, 5760)
1st memory: 1101.7 MiB
eri1 (1808, 10440)
eri1 (1808, 10440)
2nd memory: 745.7 MiB

========================
iter = 1  energy = -3855.449461 energy diff = 0.036119
multiplicity <S^2> : Reference = 0.88240415 Response = 0.88244961 Projector = 0.88249507
eri1 (1808, 10440)
eri1 (1808, 10440)
    CPU time for making amplitude: integral transform      2.08 sec, wall time      0.19 sec
shape (1808, 5760)
1st memory: 1103.1 MiB
eri1 (1808, 10440)
eri1 (1808, 10440)
2nd memory: 748.5 MiB

========================
iter = 2  energy = -3855.454765 energy diff = 0.005304
multiplicity <S^2> : Reference = 0.8487161 Response = 0.84871741 Projector = 0.84871872
eri1 (1808, 10440)
eri1 (1808, 10440)
    CPU time for making amplitude: integral transform      2.41 sec, wall time      0.23 sec
shape (1808, 5760)
1st memory: 1045.7 MiB
eri1 (1808, 10440)
eri1 (1808, 10440)
2nd memory: 749.8 MiB

========================
iter = 3  energy = -3855.457020 energy diff = 0.002255
multiplicity <S^2> : Reference = 0.82453942 Response = 0.82456709 Projector = 0.82459476
eri1 (1808, 10440)
eri1 (1808, 10440)
    CPU time for making amplitude: integral transform      2.09 sec, wall time      0.19 sec
shape (1808, 5760)
1st memory: 1107.2 MiB
eri1 (1808, 10440)
eri1 (1808, 10440)
2nd memory: 745.7 MiB

========================
iter = 4  energy = -3855.459033 energy diff = 0.002013
multiplicity <S^2> : Reference = 0.7980331 Response = 0.79802021 Projector = 0.79800732
eri1 (1808, 10440)
eri1 (1808, 10440)
    CPU time for making amplitude: integral transform      2.05 sec, wall time      0.18 sec
shape (1808, 5760)
1st memory: 1045.6 MiB
eri1 (1808, 10440)
eri1 (1808, 10440)
2nd memory: 744.3 MiB

========================
iter = 5  energy = -3855.459553 energy diff = 0.000519
multiplicity <S^2> : Reference = 0.78913566 Response = 0.78913854 Projector = 0.78914142
eri1 (1808, 10440)
eri1 (1808, 10440)
    CPU time for making amplitude: integral transform      2.08 sec, wall time      0.18 sec
shape (1808, 5760)
1st memory: 1045.6 MiB
eri1 (1808, 10440)
eri1 (1808, 10440)
2nd memory: 747.7 MiB

========================
iter = 6  energy = -3855.459816 energy diff = 0.000264
multiplicity <S^2> : Reference = 0.78360459 Response = 0.78356221 Projector = 0.78351984
eri1 (1808, 10440)
eri1 (1808, 10440)
    CPU time for making amplitude: integral transform      2.06 sec, wall time      0.18 sec
shape (1808, 5760)
1st memory: 1105.0 MiB
eri1 (1808, 10440)
eri1 (1808, 10440)
2nd memory: 751.2 MiB

========================
iter = 7  energy = -3855.459892 energy diff = 0.000075
multiplicity <S^2> : Reference = 0.78190039 Response = 0.78186145 Projector = 0.7818225
eri1 (1808, 10440)
eri1 (1808, 10440)
    CPU time for making amplitude: integral transform      2.07 sec, wall time      0.18 sec
shape (1808, 5760)
1st memory: 1048.4 MiB
eri1 (1808, 10440)
eri1 (1808, 10440)
2nd memory: 743.6 MiB

========================
iter = 8  energy = -3855.459925 energy diff = 0.000034
multiplicity <S^2> : Reference = 0.78143696 Response = 0.78135074 Projector = 0.78126453
eri1 (1808, 10440)
eri1 (1808, 10440)
    CPU time for making amplitude: integral transform      2.12 sec, wall time      0.20 sec
shape (1808, 5760)
1st memory: 1050.4 MiB
eri1 (1808, 10440)
eri1 (1808, 10440)
2nd memory: 751.3 MiB

========================
iter = 9  energy = -3855.459931 energy diff = 0.000006
multiplicity <S^2> : Reference = 0.78177572 Response = 0.78177281 Projector = 0.78176989

UOB-MP2 has converged
UOB-MP2 energy =  -3855.4599312470295


******** <class 'pyscf.scf.uhf.UHF'> ********
method = UHF
initial guess = minao
damping factor = 0
level_shift factor = 0
DIIS = <class 'pyscf.scf.diis.CDIIS'>
diis_start_cycle = 1
diis_space = 8
SCF conv_tol = 1e-09
SCF conv_tol_grad = None
SCF max_cycles = 50
direct_scf = True
direct_scf_tol = 1e-13
chkfile to save SCF result = /home/ltkoanh/Al_B2LYP_6311_Gd_Cluster/Cluster/Al16-cation-doublet/tmp2qfhghjm
max_memory 4000 MB (current use 387 MB)
number electrons alpha = 104  beta = 103
Set gradient conv threshold to 3.16228e-05
init E= -3858.20442609673
  alpha nocc = 104  HOMO = -0.275080459511241  LUMO = -0.262736750299423
  beta  nocc = 103  HOMO = -0.29776559681526  LUMO = -0.275080459511241

WARN: system HOMO -0.275080459511241 >= system LUMO -0.275080459511241

cycle= 1 E= -3854.60494691483  delta_E=  3.6  |g|= 0.332  |ddm|= 4.51
  alpha nocc = 104  HOMO = -0.0517909306962734  LUMO = 0.062230345055831
  beta  nocc = 103  HOMO = -0.0496936359003726  LUMO = 0.0695893793457571
cycle= 2 E= -3854.6230909691  delta_E= -0.0181  |g|= 0.337  |ddm|= 1.23
  alpha nocc = 104  HOMO = -0.105113375935315  LUMO = 0.0585029497162004
  beta  nocc = 103  HOMO = -0.104309517001142  LUMO = 0.0614798126178211
cycle= 3 E= -3854.71944264501  delta_E= -0.0964  |g|= 0.0882  |ddm|= 0.636
  alpha nocc = 104  HOMO = -0.113797332861254  LUMO = 0.0536834325774637
  beta  nocc = 103  HOMO = -0.108815231341631  LUMO = 0.0605535353812457
cycle= 4 E= -3854.72704093671  delta_E= -0.0076  |g|= 0.0546  |ddm|= 0.232
  alpha nocc = 104  HOMO = -0.116249978637944  LUMO = 0.0573154581962933
  beta  nocc = 103  HOMO = -0.112014569199493  LUMO = 0.0627522234762777
cycle= 5 E= -3854.7330264509  delta_E= -0.00599  |g|= 0.0202  |ddm|= 0.192
  alpha nocc = 104  HOMO = -0.115843593890655  LUMO = 0.0585220198301384
  beta  nocc = 103  HOMO = -0.111989784406687  LUMO = 0.0639846471136254
cycle= 6 E= -3854.73531938616  delta_E= -0.00229  |g|= 0.0175  |ddm|= 0.152
  alpha nocc = 104  HOMO = -0.115681495266644  LUMO = 0.0596136308788028
  beta  nocc = 103  HOMO = -0.111457525167476  LUMO = 0.065029064987522
cycle= 7 E= -3854.7363866914  delta_E= -0.00107  |g|= 0.0128  |ddm|= 0.0831
  alpha nocc = 104  HOMO = -0.115759140602725  LUMO = 0.0608101940296048
  beta  nocc = 103  HOMO = -0.111278093702817  LUMO = 0.0654897042049965
cycle= 8 E= -3854.73757130283  delta_E= -0.00118  |g|= 0.0107  |ddm|= 0.105
  alpha nocc = 104  HOMO = -0.115788281839478  LUMO = 0.0614453273278776
  beta  nocc = 103  HOMO = -0.110821269369258  LUMO = 0.0658346121608118
cycle= 9 E= -3854.73841278532  delta_E= -0.000841  |g|= 0.0106  |ddm|= 0.0762
  alpha nocc = 104  HOMO = -0.115547094418249  LUMO = 0.0611496181477002
  beta  nocc = 103  HOMO = -0.110937473674021  LUMO = 0.0657431204299338
cycle= 10 E= -3854.73790829678  delta_E= 0.000504  |g|= 0.0103  |ddm|= 0.0461
  alpha nocc = 104  HOMO = -0.114716885802537  LUMO = 0.0603137773684747
  beta  nocc = 103  HOMO = -0.111796391180719  LUMO = 0.0662602259210777
cycle= 11 E= -3854.73597063196  delta_E= 0.00194  |g|= 0.00845  |ddm|= 0.215
  alpha nocc = 104  HOMO = -0.113376363841936  LUMO = 0.0595266242485294
  beta  nocc = 103  HOMO = -0.112130648466275  LUMO = 0.0668897506816833
cycle= 12 E= -3854.73494493726  delta_E= 0.00103  |g|= 0.00666  |ddm|= 0.207
  alpha nocc = 104  HOMO = -0.113282994411981  LUMO = 0.0580608234939908
  beta  nocc = 103  HOMO = -0.112521767797983  LUMO = 0.0659243724133705
cycle= 13 E= -3854.73497480118  delta_E= -2.99e-05  |g|= 0.00599  |ddm|= 0.0799
  alpha nocc = 104  HOMO = -0.11289854750252  LUMO = 0.0578521878220528
  beta  nocc = 103  HOMO = -0.11241218509822  LUMO = 0.0659097783829308
cycle= 14 E= -3854.73504533393  delta_E= -7.05e-05  |g|= 0.00496  |ddm|= 0.0426
  alpha nocc = 104  HOMO = -0.112745900888858  LUMO = 0.058192330228573
  beta  nocc = 103  HOMO = -0.112393161479563  LUMO = 0.0662138135308344
cycle= 15 E= -3854.73519666065  delta_E= -0.000151  |g|= 0.00473  |ddm|= 0.0406
  alpha nocc = 104  HOMO = -0.112856501647901  LUMO = 0.0580768420853609
  beta  nocc = 103  HOMO = -0.112438690499538  LUMO = 0.0660933903689413
cycle= 16 E= -3854.73532254792  delta_E= -0.000126  |g|= 0.00462  |ddm|= 0.0289
  alpha nocc = 104  HOMO = -0.112860346242953  LUMO = 0.0580819607027671
  beta  nocc = 103  HOMO = -0.112371537903102  LUMO = 0.0660902928079112
cycle= 17 E= -3854.73538740816  delta_E= -6.49e-05  |g|= 0.00464  |ddm|= 0.0131
  alpha nocc = 104  HOMO = -0.112846791143027  LUMO = 0.0579968408468407
  beta  nocc = 103  HOMO = -0.112390586663214  LUMO = 0.0660349174873135
cycle= 18 E= -3854.73533253085  delta_E= 5.49e-05  |g|= 0.00462  |ddm|= 0.0113
  alpha nocc = 104  HOMO = -0.112738155172153  LUMO = 0.0579204971790971
  beta  nocc = 103  HOMO = -0.112573841591032  LUMO = 0.0660727797654546
cycle= 19 E= -3854.73510424505  delta_E= 0.000228  |g|= 0.00428  |ddm|= 0.0524
  alpha nocc = 104  HOMO = -0.11267201186516  LUMO = 0.0577810223813961
  beta  nocc = 103  HOMO = -0.112684248367011  LUMO = 0.0660983237023022
cycle= 20 E= -3854.73497487335  delta_E= 0.000129  |g|= 0.00398  |ddm|= 0.0496
  alpha nocc = 104  HOMO = -0.112607554238467  LUMO = 0.0577982836188232
  beta  nocc = 103  HOMO = -0.112593731678713  LUMO = 0.0662258183941829
cycle= 21 E= -3854.73500808826  delta_E= -3.32e-05  |g|= 0.00382  |ddm|= 0.0299
  alpha nocc = 104  HOMO = -0.112589489380888  LUMO = 0.0578149501237309
  beta  nocc = 103  HOMO = -0.112348745996892  LUMO = 0.0663293407515298
cycle= 22 E= -3854.73513369824  delta_E= -0.000126  |g|= 0.00377  |ddm|= 0.0392
  alpha nocc = 104  HOMO = -0.112757627887451  LUMO = 0.0578367509376245
  beta  nocc = 103  HOMO = -0.112331724240885  LUMO = 0.0662893478096718
cycle= 23 E= -3854.73519848587  delta_E= -6.48e-05  |g|= 0.00378  |ddm|= 0.0197
  alpha nocc = 104  HOMO = -0.112818632239212  LUMO = 0.0578604914375304
  beta  nocc = 103  HOMO = -0.112244566717311  LUMO = 0.0662771420059474
cycle= 24 E= -3854.73526782359  delta_E= -6.93e-05  |g|= 0.00374  |ddm|= 0.0179
  alpha nocc = 104  HOMO = -0.11285128102896  LUMO = 0.0578441044190552
  beta  nocc = 103  HOMO = -0.112251424194437  LUMO = 0.0662273673413031
cycle= 25 E= -3854.73528696107  delta_E= -1.91e-05  |g|= 0.00376  |ddm|= 0.00713
  alpha nocc = 104  HOMO = -0.112859739503453  LUMO = 0.0578285362332674
  beta  nocc = 103  HOMO = -0.11227799868235  LUMO = 0.0662115464583088
cycle= 26 E= -3854.73527177549  delta_E= 1.52e-05  |g|= 0.00376  |ddm|= 0.00501
  alpha nocc = 104  HOMO = -0.112837506829634  LUMO = 0.0578329429438681
  beta  nocc = 103  HOMO = -0.112284781129989  LUMO = 0.0662392250527225
cycle= 27 E= -3854.73525895209  delta_E= 1.28e-05  |g|= 0.00375  |ddm|= 0.00324
  alpha nocc = 104  HOMO = -0.112767711691844  LUMO = 0.0578070071489685
  beta  nocc = 103  HOMO = -0.112357442551715  LUMO = 0.066286319844583
cycle= 28 E= -3854.73518521021  delta_E= 7.37e-05  |g|= 0.00374  |ddm|= 0.0222
  alpha nocc = 104  HOMO = -0.112763887744836  LUMO = 0.0577969135908293
  beta  nocc = 103  HOMO = -0.112366959698184  LUMO = 0.066279104678654
cycle= 29 E= -3854.73518160214  delta_E= 3.61e-06  |g|= 0.00374  |ddm|= 0.00163
  alpha nocc = 104  HOMO = -0.112761595370508  LUMO = 0.0577981036530757
  beta  nocc = 103  HOMO = -0.112340855506203  LUMO = 0.066283504753715
cycle= 30 E= -3854.73519909821  delta_E= -1.75e-05  |g|= 0.00373  |ddm|= 0.00595
  alpha nocc = 104  HOMO = -0.112869689983532  LUMO = 0.0578206927766529
  beta  nocc = 103  HOMO = -0.112217931506599  LUMO = 0.0662570364961134
cycle= 31 E= -3854.73530949836  delta_E= -0.00011  |g|= 0.00377  |ddm|= 0.0295
  alpha nocc = 104  HOMO = -0.112834043972738  LUMO = 0.0578141133295956
  beta  nocc = 103  HOMO = -0.112233418498739  LUMO = 0.0662617275890986
cycle= 32 E= -3854.73528691674  delta_E= 2.26e-05  |g|= 0.00378  |ddm|= 0.00645
  alpha nocc = 104  HOMO = -0.112715938513658  LUMO = 0.0577740264492682
  beta  nocc = 103  HOMO = -0.112381649365628  LUMO = 0.066306325441268
cycle= 33 E= -3854.73517638204  delta_E= 0.000111  |g|= 0.00371  |ddm|= 0.0282
  alpha nocc = 104  HOMO = -0.112698532258203  LUMO = 0.0577535093651386
  beta  nocc = 103  HOMO = -0.112412633265648  LUMO = 0.0663220801882243
cycle= 34 E= -3854.73517390984  delta_E= 2.47e-06  |g|= 0.00367  |ddm|= 0.00698
  alpha nocc = 104  HOMO = -0.11269061496214  LUMO = 0.05769051467811
  beta  nocc = 103  HOMO = -0.112249938771496  LUMO = 0.0663409851785159
cycle= 35 E= -3854.73530490695  delta_E= -0.000131  |g|= 0.00359  |ddm|= 0.0447
  alpha nocc = 104  HOMO = -0.112692500505048  LUMO = 0.0577108978945011
  beta  nocc = 103  HOMO = -0.112110436599363  LUMO = 0.0663409707572372
cycle= 36 E= -3854.73541652888  delta_E= -0.000112  |g|= 0.00351  |ddm|= 0.0358
  alpha nocc = 104  HOMO = -0.112763505384636  LUMO = 0.0577206732614299
  beta  nocc = 103  HOMO = -0.112020231046253  LUMO = 0.0663361034665252
cycle= 37 E= -3854.73551126206  delta_E= -9.47e-05  |g|= 0.00346  |ddm|= 0.0325
  alpha nocc = 104  HOMO = -0.112804795216097  LUMO = 0.0577044777408895
  beta  nocc = 103  HOMO = -0.111895715478785  LUMO = 0.0662598027174382
cycle= 38 E= -3854.73560426  delta_E= -9.3e-05  |g|= 0.00344  |ddm|= 0.031
  alpha nocc = 104  HOMO = -0.112854726657731  LUMO = 0.0577323897143071
  beta  nocc = 103  HOMO = -0.111863883414886  LUMO = 0.0662183146519461
cycle= 39 E= -3854.73564980054  delta_E= -4.55e-05  |g|= 0.00346  |ddm|= 0.0176
  alpha nocc = 104  HOMO = -0.112863944256708  LUMO = 0.057727660309037
  beta  nocc = 103  HOMO = -0.111825396802158  LUMO = 0.0662265283150074
cycle= 40 E= -3854.73566771139  delta_E= -1.79e-05  |g|= 0.00346  |ddm|= 0.00961
  alpha nocc = 104  HOMO = -0.112991917303781  LUMO = 0.0577826769675163
  beta  nocc = 103  HOMO = -0.111796046562362  LUMO = 0.0662041924801318
cycle= 41 E= -3854.73571490458  delta_E= -4.72e-05  |g|= 0.00353  |ddm|= 0.0177
  alpha nocc = 104  HOMO = -0.11300866111638  LUMO = 0.057789077547966
  beta  nocc = 103  HOMO = -0.111777790960791  LUMO = 0.0662011419372485
cycle= 42 E= -3854.73572695857  delta_E= -1.21e-05  |g|= 0.00352  |ddm|= 0.00366
  alpha nocc = 104  HOMO = -0.112922335640384  LUMO = 0.0577122703895374
  beta  nocc = 103  HOMO = -0.111930142347161  LUMO = 0.0662847352076932
cycle= 43 E= -3854.73566678557  delta_E= 6.02e-05  |g|= 0.0034  |ddm|= 0.0247
  alpha nocc = 104  HOMO = -0.11276337544522  LUMO = 0.0577251146880817
  beta  nocc = 103  HOMO = -0.11175659101944  LUMO = 0.0664995624636345
cycle= 44 E= -3854.73574830629  delta_E= -8.15e-05  |g|= 0.00315  |ddm|= 0.073
  alpha nocc = 104  HOMO = -0.112773641481232  LUMO = 0.0577613844309771
  beta  nocc = 103  HOMO = -0.111566612293236  LUMO = 0.0664984763827774
cycle= 45 E= -3854.73586791381  delta_E= -0.00012  |g|= 0.00302  |ddm|= 0.0648
  alpha nocc = 104  HOMO = -0.112912592882229  LUMO = 0.0577217863205034
  beta  nocc = 103  HOMO = -0.111473243163309  LUMO = 0.06645601695473
cycle= 46 E= -3854.73595136607  delta_E= -8.35e-05  |g|= 0.00288  |ddm|= 0.0448
  alpha nocc = 104  HOMO = -0.113169358342905  LUMO = 0.0577891631503904
  beta  nocc = 103  HOMO = -0.111183105670982  LUMO = 0.0663092021581183
cycle= 47 E= -3854.73613649239  delta_E= -0.000185  |g|= 0.00278  |ddm|= 0.0824
  alpha nocc = 104  HOMO = -0.113310734966688  LUMO = 0.0579155385748871
  beta  nocc = 103  HOMO = -0.111090210518109  LUMO = 0.0662672109317085
cycle= 48 E= -3854.7362138155  delta_E= -7.73e-05  |g|= 0.00277  |ddm|= 0.0317
  alpha nocc = 104  HOMO = -0.113318775767054  LUMO = 0.0579100911459729
  beta  nocc = 103  HOMO = -0.11108935561998  LUMO = 0.0662591939934506
cycle= 49 E= -3854.73621926465  delta_E= -5.45e-06  |g|= 0.00278  |ddm|= 0.00233
  alpha nocc = 104  HOMO = -0.11340102691212  LUMO = 0.0578379596335263
  beta  nocc = 103  HOMO = -0.111098959822763  LUMO = 0.0662146330886684
cycle= 50 E= -3854.73620558197  delta_E= 1.37e-05  |g|= 0.00278  |ddm|= 0.0165
SCF not converged.
SCF energy = -3854.73620558197 after 50 cycles  <S^2> = 1.0262616  2S+1 = 2.259435
