#INFO: **** input file is /home/ltkoanh/Al_B2LYP_6311_Gd_Cluster/Cluster/Al16-cation-doublet/input.py ****
import numpy
from pyscf import gto, scf, dft, mp, cc
from pyscf.mp import uobmp2_mom_conv, dfuobmp2_mom_conv, uhf_mom
from pyscf.mp import  mp2, ump2
from pyscf.tools import molden
import os
from functools import reduce


mol = gto.Mole()
geom = os.environ.get('geom_txt')
mol.atom = geom
mol.basis = os.environ.get('basis', 'cc-pvdz')
mol.unit = 'A'
mol.charge = int(os.environ.get('charge', 0))
mol.spin = int(os.environ.get('spin', 0))
mol.verbose = 4
mol.build()

#################### Ground state using density fitting
### Hartree-Fock
a  = scf.UHF(mol).density_fit()
a.kernel()

### Ground state OBMP2 calculation
ob = dfuobmp2_mom_conv.DFUOBMP2(a)
ob.second_order = True
ob.thresh = 10e-6
ob.css = 1
ob.cos = 1
e_obmp2g = ob.kernel()

### Ground state O2BMP2 calculation
ob = dfuobmp2_mom_conv.DFUOBMP2(a)
ob.second_order = True
ob.thresh = 10e-6
ob.css = 0                             
ob.cos = 1.2                             
e_o2bmp2g = ob.kernel()  

#################### Ground state NOT using density fitting
### Hartree-Fock
a  = scf.UHF(mol)
a.kernel()

### Ground state OBMP2 calculation
ob = uobmp2_mom_conv.UOBMP2(a)
ob.second_order = True
ob.thresh = 10e-6
ob.css = 1
ob.cos = 1
#e_obmp2g = ob.kernel()

### Ground state O2BMP2 calculation
ob = uobmp2_mom_conv.UOBMP2(a)
ob.second_order = True
ob.thresh = 10e-6
ob.css = 0
ob.cos = 1.2   ## the cos can be vary ...                        	 
#e_o2bmp2g = ob.kernel()


## Results from density-fitting approximate with non-using density fitting 
## check results between df and non-df with small molecules before running the important molecules
#INFO: ******************** input file end ********************


System: uname_result(system='Linux', node='comphys', release='3.10.0-1160.119.1.el7.x86_64', version='#1 SMP Tue Jun 4 14:43:51 UTC 2024', machine='x86_64', processor='x86_64')  Threads 8
Python 3.7.9 (default, Dec  4 2023, 13:00:18) 
[GCC 4.8.5 20150623 (Red Hat 4.8.5-44)]
numpy 1.21.6  scipy 1.7.3
Date: Sun May 25 18:22:42 2025
PySCF version 1.7.0
PySCF path  /share/installs/pyscf/pyscf
GIT HEAD      ref: refs/heads/ob-mp2
GIT ob-mp2 branch  f0fc63383ab6c719c0c91f5e07a6895c637b700d

[CONFIG] conf_file None
[INPUT] verbose = 4
[INPUT] num. atoms = 16
[INPUT] num. electrons = 135
[INPUT] charge = 1
[INPUT] spin (= nelec alpha-beta = 2S) = 1
[INPUT] symmetry False subgroup None
[INPUT] Mole.unit = A
[INPUT]  1 H      1.530418000000  -2.009970000000   0.000000000000 AA    2.892070876105  -3.798292818592   0.000000000000 Bohr
[INPUT]  2 He    -0.859868000000  -1.640395000000   1.582664000000 AA   -1.624915023278  -3.099897286106   2.990801507209 Bohr
[INPUT]  3 Li     2.878313000000   0.372020000000   0.000000000000 AA    5.439223270775   0.703015912861   0.000000000000 Bohr
[INPUT]  4 Be    -2.481002000000  -0.006784000000   0.000000000000 AA   -4.688414294498  -0.012819902029   0.000000000000 Bohr
[INPUT]  5 B     -1.089029000000   0.957224000000   2.267744000000 AA   -2.057966551709   1.808891199861   4.285415080626 Bohr
[INPUT]  6 C      1.424635000000  -0.499443000000  -2.296922000000 AA    2.692169977470  -0.943810484831  -4.340553509488 Bohr
[INPUT]  7 N      1.424635000000  -0.499443000000   2.296922000000 AA    2.692169977470  -0.943810484831   4.340553509488 Bohr
[INPUT]  8 O     -0.859868000000  -1.640395000000  -1.582664000000 AA   -1.624915023278  -3.099897286106  -2.990801507209 Bohr
[INPUT]  9 F      1.424635000000   2.091493000000  -1.899200000000 AA    2.692169977470   3.952348961445  -3.588967855774 Bohr
[INPUT] 10 Ne    -1.631593000000   2.521536000000   0.000000000000 AA   -3.083263916757   4.765012453231   0.000000000000 Bohr
[INPUT] 11 Na    -1.089029000000   0.957224000000  -2.267744000000 AA   -2.057966551709   1.808891199861  -4.285415080626 Bohr
[INPUT] 12 Mg     1.424635000000   2.091493000000   1.899200000000 AA    2.692169977470   3.952348961445   3.588967855774 Bohr
[INPUT] 13 Al    -0.328870000000  -3.975443000000   0.000000000000 AA   -0.621474230586  -7.512498493819   0.000000000000 Bohr
[INPUT] 14 Si     0.714289000000   3.679022000000   0.000000000000 AA    1.349810583789   6.952343986250   0.000000000000 Bohr
[INPUT] 15 P     -2.708203000000  -2.893413000000   0.000000000000 AA   -5.117761959725  -5.467758135256   0.000000000000 Bohr
[INPUT] 16 S      0.225902000000   0.495273000000   0.000000000000 AA    0.426892910991   0.935930326892   0.000000000000 Bohr

nuclear repulsion = 1190.34185279919
number of shells = 56
number of NR pGTOs = 576
number of NR cGTOs = 96
basis = sto-6g
ecp = {}
CPU time:         1.40


******** <class 'pyscf.df.df_jk.density_fit.<locals>.DFHF'> ********
method = DFHF-UHF
initial guess = minao
damping factor = 0
level_shift factor = 0
DIIS = <class 'pyscf.scf.diis.CDIIS'>
diis_start_cycle = 1
diis_space = 8
SCF conv_tol = 1e-09
SCF conv_tol_grad = None
SCF max_cycles = 50
direct_scf = True
direct_scf_tol = 1e-13
chkfile to save SCF result = /home/ltkoanh/Al_B2LYP_6311_Gd_Cluster/Cluster/Al16-cation-doublet/tmpypxyp9f3
max_memory 4000 MB (current use 60 MB)
number electrons alpha = 68  beta = 67
Set gradient conv threshold to 3.16228e-05
******** <class 'pyscf.df.df.DF'> ********
auxbasis = None
max_memory = 4000
_cderi_to_save = /home/ltkoanh/Al_B2LYP_6311_Gd_Cluster/Cluster/Al16-cation-doublet/tmphavxpkp0
Even tempered Gaussians are generated as DF auxbasis for  B Al Ne N Be F Na C He Li H P Si O Mg S
init E= -2061.96035230234
  alpha nocc = 68  HOMO = -0.259802820186966  LUMO = -0.254587443990751
  beta  nocc = 67  HOMO = -0.314244182461544  LUMO = -0.259802820186966

WARN: system HOMO -0.259802820186966 >= system LUMO -0.259802820186966

cycle= 1 E= -2061.197056232  delta_E= 0.763  |g|= 1.18  |ddm|= 3.34
  alpha nocc = 68  HOMO = 0.0555678942761713  LUMO = 0.0908721527830635
  beta  nocc = 67  HOMO = 0.0265058327568701  LUMO = 0.0613192601667213
cycle= 2 E= -2042.77387879699  delta_E= 18.4  |g|= 2.39  |ddm|= 6.59
  alpha nocc = 68  HOMO = -0.0491323137280642  LUMO = -0.0317497380538182
  beta  nocc = 67  HOMO = -0.0535382532590646  LUMO = -0.0455555661833502
cycle= 3 E= -2055.96457300471  delta_E= -13.2  |g|= 2.79  |ddm|=  5.8
  alpha nocc = 68  HOMO = -0.0979574803773948  LUMO = -0.0763538586521123
  beta  nocc = 67  HOMO = -0.0885957192213074  LUMO = -0.0642088707270537
cycle= 4 E= -2064.00577453403  delta_E= -8.04  |g|= 0.576  |ddm|= 3.15
  alpha nocc = 68  HOMO = -0.0831430072926948  LUMO = -0.0770695773924669
  beta  nocc = 67  HOMO = -0.0794340197668176  LUMO = -0.0719446037444015
cycle= 5 E= -2058.08923332675  delta_E= 5.92  |g|= 2.05  |ddm|= 3.35
  alpha nocc = 68  HOMO = -0.193182731499094  LUMO = -0.0766658630797112
  beta  nocc = 67  HOMO = -0.174049009228199  LUMO = -0.0782691868974117
cycle= 6 E= -2064.404317202  delta_E= -6.32  |g|= 0.334  |ddm|= 3.09
  alpha nocc = 68  HOMO = -0.169265270003006  LUMO = -0.0393693255509803
  beta  nocc = 67  HOMO = -0.159776555227472  LUMO = -0.0302933066081793
cycle= 7 E= -2064.50715969928  delta_E= -0.103  |g|= 0.256  |ddm|= 0.745
  alpha nocc = 68  HOMO = -0.19893251765952  LUMO = -0.0619662049113117
  beta  nocc = 67  HOMO = -0.19485461822473  LUMO = -0.0656190569930577
cycle= 8 E= -2064.57220529527  delta_E= -0.065  |g|= 0.191  |ddm|= 0.561
  alpha nocc = 68  HOMO = -0.196946038638477  LUMO = -0.0533112202120714
  beta  nocc = 67  HOMO = -0.193547469620028  LUMO = -0.0389460323518622
cycle= 9 E= -2064.62784475562  delta_E= -0.0556  |g|= 0.169  |ddm|= 0.483
  alpha nocc = 68  HOMO = -0.194003133761203  LUMO = -0.0546022566521377
  beta  nocc = 67  HOMO = -0.19081285592756  LUMO = -0.0356211258624627
cycle= 10 E= -2064.64710717185  delta_E= -0.0193  |g|= 0.15  |ddm|= 0.127
  alpha nocc = 68  HOMO = -0.18388496338543  LUMO = -0.0514583360659093
  beta  nocc = 67  HOMO = -0.186868963157955  LUMO = -0.0359667606234771
cycle= 11 E= -2064.69746833631  delta_E= -0.0504  |g|= 0.102  |ddm|= 0.373
  alpha nocc = 68  HOMO = -0.183357789863435  LUMO = -0.0424277423672391
  beta  nocc = 67  HOMO = -0.189575452110776  LUMO = -0.022243413219188
cycle= 12 E= -2064.73039864426  delta_E= -0.0329  |g|= 0.0935  |ddm|= 0.311
  alpha nocc = 68  HOMO = -0.180702000545171  LUMO = -0.0324757041671911
  beta  nocc = 67  HOMO = -0.188238982900648  LUMO = -0.0165201271295446
cycle= 13 E= -2064.75757765176  delta_E= -0.0272  |g|= 0.0909  |ddm|= 0.271
  alpha nocc = 68  HOMO = -0.178733815971639  LUMO = -0.0182850799168918
  beta  nocc = 67  HOMO = -0.188787707061672  LUMO = -0.0120376495060173
cycle= 14 E= -2064.79335953364  delta_E= -0.0358  |g|= 0.0853  |ddm|= 0.354
  alpha nocc = 68  HOMO = -0.191094924040481  LUMO = -0.0216850787724061
  beta  nocc = 67  HOMO = -0.178773040854427  LUMO = -0.0150690372063663
cycle= 15 E= -2064.81025331735  delta_E= -0.0169  |g|= 0.105  |ddm|= 0.345
  alpha nocc = 68  HOMO = -0.181182976088281  LUMO = -0.018164859931833
  beta  nocc = 67  HOMO = -0.188609159971701  LUMO = -0.00797721134605542
cycle= 16 E= -2064.79465433232  delta_E= 0.0156  |g|= 0.0839  |ddm|= 0.418
  alpha nocc = 68  HOMO = -0.174764644341049  LUMO = -0.0160812216241182
  beta  nocc = 67  HOMO = -0.188982227274075  LUMO = -0.00558863305802462
cycle= 17 E= -2064.803933621  delta_E= -0.00928  |g|= 0.0646  |ddm|= 0.259
  alpha nocc = 68  HOMO = -0.172922772599098  LUMO = -0.022774867198942
  beta  nocc = 67  HOMO = -0.18713676105939  LUMO = -0.00586478031294618
cycle= 18 E= -2064.81349751757  delta_E= -0.00956  |g|= 0.066  |ddm|= 0.176
  alpha nocc = 68  HOMO = -0.170719861822171  LUMO = -0.022360246940399
  beta  nocc = 67  HOMO = -0.191554720679212  LUMO = -0.00600193786426533
cycle= 19 E= -2064.8070823769  delta_E= 0.00642  |g|= 0.061  |ddm|= 0.155
  alpha nocc = 68  HOMO = -0.167862843398589  LUMO = -0.0166275930297924
  beta  nocc = 67  HOMO = -0.199771377266148  LUMO = -0.00265540396723675
cycle= 20 E= -2064.80358579019  delta_E= 0.0035  |g|= 0.0566  |ddm|= 0.171
  alpha nocc = 68  HOMO = -0.158740348666391  LUMO = -0.0102332112580493
  beta  nocc = 67  HOMO = -0.208087452460177  LUMO = -0.00305254092655034
cycle= 21 E= -2064.81017279793  delta_E= -0.00659  |g|= 0.047  |ddm|= 0.269
  alpha nocc = 68  HOMO = -0.152718571712527  LUMO = -0.00639291468065748
  beta  nocc = 67  HOMO = -0.20909021677195  LUMO = 0.000757653674712707
cycle= 22 E= -2064.81702318894  delta_E= -0.00685  |g|= 0.045  |ddm|= 0.268
  alpha nocc = 68  HOMO = -0.152071172758127  LUMO = -0.00683026787490751
  beta  nocc = 67  HOMO = -0.208955809403093  LUMO = 0.00238577665619675
cycle= 23 E= -2064.82053456235  delta_E= -0.00351  |g|= 0.0455  |ddm|= 0.0959
  alpha nocc = 68  HOMO = -0.162631016242466  LUMO = 0.000426885331811336
  beta  nocc = 67  HOMO = -0.213561566708244  LUMO = 0.00050153517620502
cycle= 24 E= -2064.81146923352  delta_E= 0.00907  |g|= 0.0432  |ddm|= 0.217
  alpha nocc = 68  HOMO = -0.153308351906014  LUMO = -0.00453108993841552
  beta  nocc = 67  HOMO = -0.212228265127701  LUMO = -0.000108374212899466
cycle= 25 E= -2064.81355390539  delta_E= -0.00208  |g|= 0.0442  |ddm|= 0.121
  alpha nocc = 68  HOMO = -0.155578178490714  LUMO = -0.00445444541918499
  beta  nocc = 67  HOMO = -0.212740082449933  LUMO = -0.000124994984267207
cycle= 26 E= -2064.81365287186  delta_E= -9.9e-05  |g|= 0.0458  |ddm|= 0.125
  alpha nocc = 68  HOMO = -0.16028058392633  LUMO = 0.0016787808667462
  beta  nocc = 67  HOMO = -0.214446041944361  LUMO = -0.00144847644026948
cycle= 27 E= -2064.80737303132  delta_E= 0.00628  |g|= 0.0427  |ddm|= 0.18
  alpha nocc = 68  HOMO = -0.153882578569756  LUMO = 0.000697158328070491
  beta  nocc = 67  HOMO = -0.214396610066699  LUMO = -0.000851127622865779
cycle= 28 E= -2064.80682267781  delta_E= 0.00055  |g|= 0.0372  |ddm|= 0.102
  alpha nocc = 68  HOMO = -0.155415856613743  LUMO = 0.00409792849800678
  beta  nocc = 67  HOMO = -0.217429963638028  LUMO = -0.0121340161393384
cycle= 29 E= -2064.80559544293  delta_E= 0.00123  |g|= 0.0345  |ddm|= 0.305
  alpha nocc = 68  HOMO = -0.149928862273644  LUMO = 0.0024072406917504
  beta  nocc = 67  HOMO = -0.215590876204877  LUMO = -0.0131253739410394
cycle= 30 E= -2064.80896143762  delta_E= -0.00337  |g|= 0.0343  |ddm|= 0.129
  alpha nocc = 68  HOMO = -0.148112198069846  LUMO = 0.00178932592710808
  beta  nocc = 67  HOMO = -0.215672008536979  LUMO = -0.0108923940911281
cycle= 31 E= -2064.80948516542  delta_E= -0.000524  |g|= 0.0343  |ddm|= 0.0479
  alpha nocc = 68  HOMO = -0.148734793515727  LUMO = 0.00226897763081849
  beta  nocc = 67  HOMO = -0.216603153782958  LUMO = -0.0100215787459914
cycle= 32 E= -2064.80953564971  delta_E= -5.05e-05  |g|= 0.034  |ddm|= 0.0876
  alpha nocc = 68  HOMO = -0.146764618730072  LUMO = 0.000657843688957972
  beta  nocc = 67  HOMO = -0.215518511832572  LUMO = -0.00977535194429023
cycle= 33 E= -2064.81027041036  delta_E= -0.000735  |g|= 0.0337  |ddm|= 0.0598
  alpha nocc = 68  HOMO = -0.145815945781023  LUMO = 0.000479075600533148
  beta  nocc = 67  HOMO = -0.214838721935929  LUMO = -0.00902687768940609
cycle= 34 E= -2064.8109856153  delta_E= -0.000715  |g|= 0.0343  |ddm|= 0.0544
  alpha nocc = 68  HOMO = -0.146991621227091  LUMO = 0.000789545039219202
  beta  nocc = 67  HOMO = -0.215449745994995  LUMO = -0.00834445997360975
cycle= 35 E= -2064.81008962781  delta_E= 0.000896  |g|= 0.0347  |ddm|= 0.0592
  alpha nocc = 68  HOMO = -0.145223527091197  LUMO = 0.000410312207585023
  beta  nocc = 67  HOMO = -0.214573420146869  LUMO = -0.0048706421402895
cycle= 36 E= -2064.81475115005  delta_E= -0.00466  |g|= 0.0344  |ddm|= 0.16
  alpha nocc = 68  HOMO = -0.145848005562394  LUMO = 0.00240165943611728
  beta  nocc = 67  HOMO = -0.215844726317841  LUMO = -0.00650347549977554
cycle= 37 E= -2064.81173211349  delta_E= 0.00302  |g|= 0.0333  |ddm|= 0.0838
  alpha nocc = 68  HOMO = -0.153715998395095  LUMO = 0.00246460645474148
  beta  nocc = 67  HOMO = -0.21873863022771  LUMO = -0.0165320108677901
cycle= 38 E= -2064.80277311379  delta_E= 0.00896  |g|= 0.0312  |ddm|= 0.322
  alpha nocc = 68  HOMO = -0.151892388989592  LUMO = 0.000720400980086367
  beta  nocc = 67  HOMO = -0.219808321503047  LUMO = -0.0180530665382942
cycle= 39 E= -2064.80171324685  delta_E= 0.00106  |g|= 0.0279  |ddm|= 0.18
  alpha nocc = 68  HOMO = -0.148943202876281  LUMO = -0.00204728120355339
  beta  nocc = 67  HOMO = -0.220994763003411  LUMO = -0.0200741168273394
cycle= 40 E= -2064.80236822127  delta_E= -0.000655  |g|= 0.0286  |ddm|= 0.187
  alpha nocc = 68  HOMO = -0.147856146388453  LUMO = -0.0018040114330117
  beta  nocc = 67  HOMO = -0.220857213073179  LUMO = -0.0198669920190839
cycle= 41 E= -2064.80315802124  delta_E= -0.00079  |g|= 0.0281  |ddm|= 0.0323
  alpha nocc = 68  HOMO = -0.142676522843174  LUMO = -0.000685278540001977
  beta  nocc = 67  HOMO = -0.2189331132236  LUMO = -0.0145727054665911
cycle= 42 E= -2064.80864423998  delta_E= -0.00549  |g|= 0.0274  |ddm|= 0.187
  alpha nocc = 68  HOMO = -0.143083524695216  LUMO = -0.00103625229205878
  beta  nocc = 67  HOMO = -0.217667086921162  LUMO = -0.0132942031895643
cycle= 43 E= -2064.81121984018  delta_E= -0.00258  |g|= 0.0284  |ddm|= 0.0941
  alpha nocc = 68  HOMO = -0.144196232681082  LUMO = -0.00076802805797461
  beta  nocc = 67  HOMO = -0.219030477845498  LUMO = -0.0158188308954788
cycle= 44 E= -2064.80942101626  delta_E= 0.0018  |g|= 0.0282  |ddm|= 0.0703
  alpha nocc = 68  HOMO = -0.143372942836872  LUMO = 0.00164869640245022
  beta  nocc = 67  HOMO = -0.218295086597114  LUMO = -0.0150205758701176
cycle= 45 E= -2064.81049517862  delta_E= -0.00107  |g|= 0.0284  |ddm|= 0.0619
  alpha nocc = 68  HOMO = -0.140819064516854  LUMO = -6.13200084565564e-06
  beta  nocc = 67  HOMO = -0.217313460653544  LUMO = -0.0142730336028147
cycle= 46 E= -2064.81231651022  delta_E= -0.00182  |g|= 0.0276  |ddm|= 0.0752
  alpha nocc = 68  HOMO = -0.14210227772134  LUMO = 0.000580413413789862
  beta  nocc = 67  HOMO = -0.217492516507581  LUMO = -0.0133177211616801
cycle= 47 E= -2064.81231623832  delta_E= 2.72e-07  |g|= 0.0268  |ddm|= 0.0427
  alpha nocc = 68  HOMO = -0.140720077157014  LUMO = -0.00102575138193702
  beta  nocc = 67  HOMO = -0.216629553642889  LUMO = -0.0107722045471331
cycle= 48 E= -2064.81290511766  delta_E= -0.000589  |g|= 0.0263  |ddm|= 0.0629
  alpha nocc = 68  HOMO = -0.13958694491731  LUMO = -0.00190483818815551
  beta  nocc = 67  HOMO = -0.216779500473528  LUMO = -0.008658557028385
cycle= 49 E= -2064.81367670782  delta_E= -0.000772  |g|= 0.0258  |ddm|= 0.0646
  alpha nocc = 68  HOMO = -0.139769635491553  LUMO = -0.00138219311706415
  beta  nocc = 67  HOMO = -0.216788089422372  LUMO = -0.00916230431990022
cycle= 50 E= -2064.81337537589  delta_E= 0.000301  |g|= 0.0259  |ddm|= 0.0207
SCF not converged.
SCF energy = -2064.81337537589 after 50 cycles  <S^2> = 3.4605126  2S+1 = 3.8525382
shift = 0
thresh = 1e-05 
eri1 (1385, 4656)
eri1 (1385, 4656)
    CPU time for making amplitude: integral transform      0.91 sec, wall time      0.06 sec
shape (1385, 2688)
1st memory: 424.3 MiB
eri1 (1385, 4656)
eri1 (1385, 4656)
2nd memory: 348.3 MiB

========================
iter = 0  energy = -2065.297451 energy diff = 2065.297451
multiplicity <S^2> : Reference = 3.4605126 Response = 3.462137 Projector = 3.4637613
eri1 (1385, 4656)
eri1 (1385, 4656)
    CPU time for making amplitude: integral transform      0.72 sec, wall time      0.05 sec
shape (1385, 2688)
1st memory: 446.7 MiB
eri1 (1385, 4656)
eri1 (1385, 4656)
2nd memory: 349.3 MiB

========================
iter = 1  energy = -2065.330507 energy diff = 0.033056
multiplicity <S^2> : Reference = 3.4557455 Response = 3.4555143 Projector = 3.4552831
eri1 (1385, 4656)
eri1 (1385, 4656)
    CPU time for making amplitude: integral transform      0.82 sec, wall time      0.06 sec
shape (1385, 2688)
1st memory: 437.7 MiB
eri1 (1385, 4656)
eri1 (1385, 4656)
2nd memory: 350.4 MiB

========================
iter = 2  energy = -2065.360321 energy diff = 0.029814
multiplicity <S^2> : Reference = 3.3835558 Response = 3.3837174 Projector = 3.383879
eri1 (1385, 4656)
eri1 (1385, 4656)
    CPU time for making amplitude: integral transform      0.74 sec, wall time      0.05 sec
shape (1385, 2688)
1st memory: 445.5 MiB
eri1 (1385, 4656)
eri1 (1385, 4656)
2nd memory: 350.0 MiB

========================
iter = 3  energy = -2065.389840 energy diff = 0.029520
multiplicity <S^2> : Reference = 3.368108 Response = 3.3682094 Projector = 3.3683109
eri1 (1385, 4656)
eri1 (1385, 4656)
    CPU time for making amplitude: integral transform      0.87 sec, wall time      0.06 sec
shape (1385, 2688)
1st memory: 437.4 MiB
eri1 (1385, 4656)
eri1 (1385, 4656)
2nd memory: 349.6 MiB

========================
iter = 4  energy = -2065.415292 energy diff = 0.025452
multiplicity <S^2> : Reference = 3.3722177 Response = 3.3718726 Projector = 3.3715275
eri1 (1385, 4656)
eri1 (1385, 4656)
    CPU time for making amplitude: integral transform      0.81 sec, wall time      0.05 sec
shape (1385, 2688)
1st memory: 445.6 MiB
eri1 (1385, 4656)
eri1 (1385, 4656)
2nd memory: 351.3 MiB

========================
iter = 5  energy = -2065.433810 energy diff = 0.018517
multiplicity <S^2> : Reference = 3.4200189 Response = 3.4199882 Projector = 3.4199575
eri1 (1385, 4656)
eri1 (1385, 4656)
    CPU time for making amplitude: integral transform      0.82 sec, wall time      0.05 sec
shape (1385, 2688)
1st memory: 437.3 MiB
eri1 (1385, 4656)
eri1 (1385, 4656)
2nd memory: 351.0 MiB

========================
iter = 6  energy = -2065.444698 energy diff = 0.010888
multiplicity <S^2> : Reference = 3.4971631 Response = 3.4971094 Projector = 3.4970556
eri1 (1385, 4656)
eri1 (1385, 4656)
    CPU time for making amplitude: integral transform      0.78 sec, wall time      0.05 sec
shape (1385, 2688)
1st memory: 445.6 MiB
eri1 (1385, 4656)
eri1 (1385, 4656)
2nd memory: 353.2 MiB

========================
iter = 7  energy = -2065.447951 energy diff = 0.003253
multiplicity <S^2> : Reference = 3.5279233 Response = 3.5278087 Projector = 3.5276941
eri1 (1385, 4656)
eri1 (1385, 4656)
    CPU time for making amplitude: integral transform      0.78 sec, wall time      0.05 sec
shape (1385, 2688)
1st memory: 438.3 MiB
eri1 (1385, 4656)
eri1 (1385, 4656)
2nd memory: 353.6 MiB

========================
iter = 8  energy = -2065.444067 energy diff = 0.003883
multiplicity <S^2> : Reference = 3.4781164 Response = 3.4778926 Projector = 3.4776688
eri1 (1385, 4656)
eri1 (1385, 4656)
    CPU time for making amplitude: integral transform      0.84 sec, wall time      0.06 sec
shape (1385, 2688)
1st memory: 445.7 MiB
eri1 (1385, 4656)
eri1 (1385, 4656)
2nd memory: 351.4 MiB

========================
iter = 9  energy = -2065.443579 energy diff = 0.000488
multiplicity <S^2> : Reference = 3.4341876 Response = 3.4338963 Projector = 3.4336051
eri1 (1385, 4656)
eri1 (1385, 4656)
    CPU time for making amplitude: integral transform      0.80 sec, wall time      0.05 sec
shape (1385, 2688)
1st memory: 438.1 MiB
eri1 (1385, 4656)
eri1 (1385, 4656)
2nd memory: 353.2 MiB

========================
iter = 10  energy = -2065.443474 energy diff = 0.000105
multiplicity <S^2> : Reference = 3.3571286 Response = 3.3569289 Projector = 3.3567291
eri1 (1385, 4656)
eri1 (1385, 4656)
    CPU time for making amplitude: integral transform      0.81 sec, wall time      0.05 sec
shape (1385, 2688)
1st memory: 446.4 MiB
eri1 (1385, 4656)
eri1 (1385, 4656)
2nd memory: 353.0 MiB

========================
iter = 11  energy = -2065.455261 energy diff = 0.011787
multiplicity <S^2> : Reference = 3.3140806 Response = 3.3138695 Projector = 3.3136584
eri1 (1385, 4656)
eri1 (1385, 4656)
    CPU time for making amplitude: integral transform      0.76 sec, wall time      0.05 sec
shape (1385, 2688)
1st memory: 437.3 MiB
eri1 (1385, 4656)
eri1 (1385, 4656)
2nd memory: 352.0 MiB

========================
iter = 12  energy = -2065.468847 energy diff = 0.013586
multiplicity <S^2> : Reference = 3.3256664 Response = 3.3258758 Projector = 3.3260852
eri1 (1385, 4656)
eri1 (1385, 4656)
    CPU time for making amplitude: integral transform      0.80 sec, wall time      0.05 sec
shape (1385, 2688)
1st memory: 446.4 MiB
eri1 (1385, 4656)
eri1 (1385, 4656)
2nd memory: 353.6 MiB

========================
iter = 13  energy = -2065.488355 energy diff = 0.019508
multiplicity <S^2> : Reference = 3.3674459 Response = 3.3672889 Projector = 3.367132
eri1 (1385, 4656)
eri1 (1385, 4656)
    CPU time for making amplitude: integral transform      0.83 sec, wall time      0.06 sec
shape (1385, 2688)
1st memory: 438.0 MiB
eri1 (1385, 4656)
eri1 (1385, 4656)
2nd memory: 354.4 MiB

========================
iter = 14  energy = -2065.492005 energy diff = 0.003649
multiplicity <S^2> : Reference = 3.372594 Response = 3.3724205 Projector = 3.3722471
eri1 (1385, 4656)
eri1 (1385, 4656)
    CPU time for making amplitude: integral transform      0.76 sec, wall time      0.05 sec
shape (1385, 2688)
1st memory: 445.5 MiB
eri1 (1385, 4656)
eri1 (1385, 4656)
2nd memory: 352.7 MiB

========================
iter = 15  energy = -2065.488760 energy diff = 0.003244
multiplicity <S^2> : Reference = 3.371252 Response = 3.3712292 Projector = 3.3712064
eri1 (1385, 4656)
eri1 (1385, 4656)
    CPU time for making amplitude: integral transform      0.86 sec, wall time      0.06 sec
shape (1385, 2688)
1st memory: 438.0 MiB
eri1 (1385, 4656)
eri1 (1385, 4656)
2nd memory: 354.0 MiB

========================
iter = 16  energy = -2065.492118 energy diff = 0.003358
multiplicity <S^2> : Reference = 3.3627373 Response = 3.3626751 Projector = 3.362613
eri1 (1385, 4656)
eri1 (1385, 4656)
    CPU time for making amplitude: integral transform      0.80 sec, wall time      0.05 sec
shape (1385, 2688)
1st memory: 470.5 MiB
eri1 (1385, 4656)
eri1 (1385, 4656)
2nd memory: 354.9 MiB

========================
iter = 17  energy = -2065.489182 energy diff = 0.002936
multiplicity <S^2> : Reference = 3.3725837 Response = 3.3725887 Projector = 3.3725937
eri1 (1385, 4656)
eri1 (1385, 4656)
    CPU time for making amplitude: integral transform      0.73 sec, wall time      0.05 sec
shape (1385, 2688)
1st memory: 440.6 MiB
eri1 (1385, 4656)
eri1 (1385, 4656)
2nd memory: 355.6 MiB

========================
iter = 18  energy = -2065.488435 energy diff = 0.000747
multiplicity <S^2> : Reference = 3.3742518 Response = 3.3743736 Projector = 3.3744954
eri1 (1385, 4656)
eri1 (1385, 4656)
    CPU time for making amplitude: integral transform      0.76 sec, wall time      0.05 sec
shape (1385, 2688)
1st memory: 469.7 MiB
eri1 (1385, 4656)
eri1 (1385, 4656)
2nd memory: 355.4 MiB

========================
iter = 19  energy = -2065.487587 energy diff = 0.000848
multiplicity <S^2> : Reference = 3.3735713 Response = 3.3735843 Projector = 3.3735973
eri1 (1385, 4656)
eri1 (1385, 4656)
    CPU time for making amplitude: integral transform      0.76 sec, wall time      0.05 sec
shape (1385, 2688)
1st memory: 440.7 MiB
eri1 (1385, 4656)
eri1 (1385, 4656)
2nd memory: 355.7 MiB

========================
iter = 20  energy = -2065.491439 energy diff = 0.003852
multiplicity <S^2> : Reference = 3.3402986 Response = 3.3403706 Projector = 3.3404427
eri1 (1385, 4656)
eri1 (1385, 4656)
    CPU time for making amplitude: integral transform      0.74 sec, wall time      0.05 sec
shape (1385, 2688)
1st memory: 469.8 MiB
eri1 (1385, 4656)
eri1 (1385, 4656)
2nd memory: 355.2 MiB

========================
iter = 21  energy = -2065.495335 energy diff = 0.003896
multiplicity <S^2> : Reference = 3.334569 Response = 3.3344384 Projector = 3.3343077
eri1 (1385, 4656)
eri1 (1385, 4656)
    CPU time for making amplitude: integral transform      0.68 sec, wall time      0.05 sec
shape (1385, 2688)
1st memory: 440.4 MiB
eri1 (1385, 4656)
eri1 (1385, 4656)
2nd memory: 355.7 MiB

========================
iter = 22  energy = -2065.498795 energy diff = 0.003460
multiplicity <S^2> : Reference = 3.2887372 Response = 3.2887517 Projector = 3.2887663
eri1 (1385, 4656)
eri1 (1385, 4656)
    CPU time for making amplitude: integral transform      0.73 sec, wall time      0.05 sec
shape (1385, 2688)
1st memory: 470.6 MiB
eri1 (1385, 4656)
eri1 (1385, 4656)
2nd memory: 357.3 MiB

========================
iter = 23  energy = -2065.499752 energy diff = 0.000958
multiplicity <S^2> : Reference = 3.2830694 Response = 3.283081 Projector = 3.2830926
eri1 (1385, 4656)
eri1 (1385, 4656)
    CPU time for making amplitude: integral transform      0.74 sec, wall time      0.05 sec
shape (1385, 2688)
1st memory: 440.0 MiB
eri1 (1385, 4656)
eri1 (1385, 4656)
2nd memory: 356.6 MiB

========================
iter = 24  energy = -2065.499698 energy diff = 0.000055
multiplicity <S^2> : Reference = 3.2866699 Response = 3.2869171 Projector = 3.2871642
eri1 (1385, 4656)
eri1 (1385, 4656)
    CPU time for making amplitude: integral transform      0.71 sec, wall time      0.05 sec
shape (1385, 2688)
1st memory: 469.7 MiB
eri1 (1385, 4656)
eri1 (1385, 4656)
2nd memory: 360.3 MiB

========================
iter = 25  energy = -2065.499371 energy diff = 0.000327
multiplicity <S^2> : Reference = 3.3036548 Response = 3.3037835 Projector = 3.3039121
eri1 (1385, 4656)
eri1 (1385, 4656)
    CPU time for making amplitude: integral transform      0.84 sec, wall time      0.06 sec
shape (1385, 2688)
1st memory: 440.9 MiB
eri1 (1385, 4656)
eri1 (1385, 4656)
2nd memory: 358.0 MiB

========================
iter = 26  energy = -2065.499084 energy diff = 0.000287
multiplicity <S^2> : Reference = 3.2991989 Response = 3.2993671 Projector = 3.2995353
eri1 (1385, 4656)
eri1 (1385, 4656)
    CPU time for making amplitude: integral transform      0.84 sec, wall time      0.06 sec
shape (1385, 2688)
1st memory: 476.4 MiB
eri1 (1385, 4656)
eri1 (1385, 4656)
2nd memory: 357.8 MiB

========================
iter = 27  energy = -2065.496548 energy diff = 0.002536
multiplicity <S^2> : Reference = 3.275681 Response = 3.2755823 Projector = 3.2754837
eri1 (1385, 4656)
eri1 (1385, 4656)
    CPU time for making amplitude: integral transform      0.85 sec, wall time      0.06 sec
shape (1385, 2688)
1st memory: 440.9 MiB
eri1 (1385, 4656)
eri1 (1385, 4656)
2nd memory: 359.2 MiB

========================
iter = 28  energy = -2065.497991 energy diff = 0.001444
multiplicity <S^2> : Reference = 3.220374 Response = 3.2202051 Projector = 3.2200363
eri1 (1385, 4656)
eri1 (1385, 4656)
    CPU time for making amplitude: integral transform      0.90 sec, wall time      0.06 sec
shape (1385, 2688)
1st memory: 470.2 MiB
eri1 (1385, 4656)
eri1 (1385, 4656)
2nd memory: 359.7 MiB

========================
iter = 29  energy = -2065.497442 energy diff = 0.000549
multiplicity <S^2> : Reference = 3.2054955 Response = 3.205467 Projector = 3.2054386
eri1 (1385, 4656)
eri1 (1385, 4656)
    CPU time for making amplitude: integral transform      0.70 sec, wall time      0.05 sec
shape (1385, 2688)
1st memory: 440.0 MiB
eri1 (1385, 4656)
eri1 (1385, 4656)
2nd memory: 359.2 MiB

========================
iter = 30  energy = -2065.495625 energy diff = 0.001817
multiplicity <S^2> : Reference = 3.2039477 Response = 3.2040267 Projector = 3.2041057
eri1 (1385, 4656)
eri1 (1385, 4656)
    CPU time for making amplitude: integral transform      0.77 sec, wall time      0.05 sec
shape (1385, 2688)
1st memory: 470.5 MiB
eri1 (1385, 4656)
eri1 (1385, 4656)
2nd memory: 358.8 MiB

========================
iter = 31  energy = -2065.494964 energy diff = 0.000661
multiplicity <S^2> : Reference = 3.2074826 Response = 3.2075366 Projector = 3.2075905
eri1 (1385, 4656)
eri1 (1385, 4656)
    CPU time for making amplitude: integral transform      0.80 sec, wall time      0.05 sec
shape (1385, 2688)
1st memory: 441.3 MiB
eri1 (1385, 4656)
eri1 (1385, 4656)
2nd memory: 359.7 MiB

========================
iter = 32  energy = -2065.495772 energy diff = 0.000808
multiplicity <S^2> : Reference = 3.2081446 Response = 3.2081075 Projector = 3.2080703
eri1 (1385, 4656)
eri1 (1385, 4656)
    CPU time for making amplitude: integral transform      0.79 sec, wall time      0.05 sec
shape (1385, 2688)
1st memory: 471.7 MiB
eri1 (1385, 4656)
eri1 (1385, 4656)
2nd memory: 362.9 MiB

========================
iter = 33  energy = -2065.495494 energy diff = 0.000277
multiplicity <S^2> : Reference = 3.2099809 Response = 3.2099951 Projector = 3.2100093
eri1 (1385, 4656)
eri1 (1385, 4656)
    CPU time for making amplitude: integral transform      0.82 sec, wall time      0.06 sec
shape (1385, 2688)
1st memory: 436.6 MiB
eri1 (1385, 4656)
eri1 (1385, 4656)
2nd memory: 368.0 MiB

========================
iter = 34  energy = -2065.495220 energy diff = 0.000274
multiplicity <S^2> : Reference = 3.213882 Response = 3.2140085 Projector = 3.2141349
eri1 (1385, 4656)
eri1 (1385, 4656)
    CPU time for making amplitude: integral transform      0.75 sec, wall time      0.05 sec
shape (1385, 2688)
1st memory: 471.3 MiB
eri1 (1385, 4656)
eri1 (1385, 4656)
2nd memory: 392.2 MiB

========================
iter = 35  energy = -2065.493685 energy diff = 0.001535
multiplicity <S^2> : Reference = 3.2426975 Response = 3.2427217 Projector = 3.2427459
eri1 (1385, 4656)
eri1 (1385, 4656)
    CPU time for making amplitude: integral transform      0.75 sec, wall time      0.05 sec
shape (1385, 2688)
1st memory: 463.3 MiB
eri1 (1385, 4656)
eri1 (1385, 4656)
2nd memory: 368.1 MiB

========================
iter = 36  energy = -2065.493306 energy diff = 0.000380
multiplicity <S^2> : Reference = 3.3084964 Response = 3.3086709 Projector = 3.3088453
eri1 (1385, 4656)
eri1 (1385, 4656)
    CPU time for making amplitude: integral transform      0.74 sec, wall time      0.05 sec
shape (1385, 2688)
1st memory: 471.2 MiB
eri1 (1385, 4656)
eri1 (1385, 4656)
2nd memory: 367.0 MiB

========================
iter = 37  energy = -2065.493915 energy diff = 0.000610
multiplicity <S^2> : Reference = 3.3483602 Response = 3.3482706 Projector = 3.348181
eri1 (1385, 4656)
eri1 (1385, 4656)
    CPU time for making amplitude: integral transform      0.82 sec, wall time      0.05 sec
shape (1385, 2688)
1st memory: 463.5 MiB
eri1 (1385, 4656)
eri1 (1385, 4656)
2nd memory: 371.8 MiB

========================
iter = 38  energy = -2065.493925 energy diff = 0.000010
multiplicity <S^2> : Reference = 3.3468762 Response = 3.3467772 Projector = 3.3466782

UOB-MP2 has converged
UOB-MP2 energy =  -2065.493925101181
shift = 0
thresh = 1e-05 
eri1 (1385, 4656)
eri1 (1385, 4656)
    CPU time for making amplitude: integral transform      0.68 sec, wall time      0.05 sec
shape (1385, 2688)
1st memory: 471.7 MiB
eri1 (1385, 4656)
eri1 (1385, 4656)
2nd memory: 370.4 MiB

========================
iter = 0  energy = -2065.181219 energy diff = 2065.181219
multiplicity <S^2> : Reference = 3.4605126 Response = 3.462137 Projector = 3.4637613
eri1 (1385, 4656)
eri1 (1385, 4656)
    CPU time for making amplitude: integral transform      0.96 sec, wall time      0.06 sec
shape (1385, 2688)
1st memory: 492.7 MiB
eri1 (1385, 4656)
eri1 (1385, 4656)
2nd memory: 370.1 MiB

========================
iter = 1  energy = -2065.191511 energy diff = 0.010291
multiplicity <S^2> : Reference = 3.4618379 Response = 3.462011 Projector = 3.4621841
eri1 (1385, 4656)
eri1 (1385, 4656)
    CPU time for making amplitude: integral transform      0.83 sec, wall time      0.06 sec
shape (1385, 2688)
1st memory: 471.8 MiB
eri1 (1385, 4656)
eri1 (1385, 4656)
2nd memory: 370.6 MiB

========================
iter = 2  energy = -2065.233609 energy diff = 0.042098
multiplicity <S^2> : Reference = 3.4043387 Response = 3.404034 Projector = 3.4037293
eri1 (1385, 4656)
eri1 (1385, 4656)
    CPU time for making amplitude: integral transform      0.79 sec, wall time      0.05 sec
shape (1385, 2688)
1st memory: 493.5 MiB
eri1 (1385, 4656)
eri1 (1385, 4656)
2nd memory: 371.1 MiB

========================
iter = 3  energy = -2065.251987 energy diff = 0.018378
multiplicity <S^2> : Reference = 3.4041137 Response = 3.4037447 Projector = 3.4033757
eri1 (1385, 4656)
eri1 (1385, 4656)
    CPU time for making amplitude: integral transform      0.80 sec, wall time      0.05 sec
shape (1385, 2688)
1st memory: 471.9 MiB
eri1 (1385, 4656)
eri1 (1385, 4656)
2nd memory: 367.8 MiB

========================
iter = 4  energy = -2065.266883 energy diff = 0.014896
multiplicity <S^2> : Reference = 3.4367611 Response = 3.4372335 Projector = 3.4377058
eri1 (1385, 4656)
eri1 (1385, 4656)
    CPU time for making amplitude: integral transform      0.84 sec, wall time      0.06 sec
shape (1385, 2688)
1st memory: 493.2 MiB
eri1 (1385, 4656)
eri1 (1385, 4656)
2nd memory: 371.8 MiB

========================
iter = 5  energy = -2065.273630 energy diff = 0.006747
multiplicity <S^2> : Reference = 3.48087 Response = 3.481059 Projector = 3.4812479
eri1 (1385, 4656)
eri1 (1385, 4656)
    CPU time for making amplitude: integral transform      0.94 sec, wall time      0.06 sec
shape (1385, 2688)
1st memory: 471.1 MiB
eri1 (1385, 4656)
eri1 (1385, 4656)
2nd memory: 369.6 MiB

========================
iter = 6  energy = -2065.268361 energy diff = 0.005268
multiplicity <S^2> : Reference = 3.4366705 Response = 3.4360281 Projector = 3.4353857
eri1 (1385, 4656)
eri1 (1385, 4656)
    CPU time for making amplitude: integral transform      0.86 sec, wall time      0.06 sec
shape (1385, 2688)
1st memory: 492.5 MiB
eri1 (1385, 4656)
eri1 (1385, 4656)
2nd memory: 370.9 MiB

========================
iter = 7  energy = -2065.264641 energy diff = 0.003720
multiplicity <S^2> : Reference = 3.3916014 Response = 3.3915521 Projector = 3.3915027
eri1 (1385, 4656)
eri1 (1385, 4656)
    CPU time for making amplitude: integral transform      0.87 sec, wall time      0.06 sec
shape (1385, 2688)
1st memory: 471.7 MiB
eri1 (1385, 4656)
eri1 (1385, 4656)
2nd memory: 370.6 MiB

========================
iter = 8  energy = -2065.265739 energy diff = 0.001098
multiplicity <S^2> : Reference = 3.3544541 Response = 3.354337 Projector = 3.3542198
eri1 (1385, 4656)
eri1 (1385, 4656)
    CPU time for making amplitude: integral transform      0.85 sec, wall time      0.06 sec
shape (1385, 2688)
1st memory: 492.6 MiB
eri1 (1385, 4656)
eri1 (1385, 4656)
2nd memory: 367.3 MiB

========================
iter = 9  energy = -2065.277951 energy diff = 0.012212
multiplicity <S^2> : Reference = 3.3650185 Response = 3.3649915 Projector = 3.3649645
eri1 (1385, 4656)
eri1 (1385, 4656)
    CPU time for making amplitude: integral transform      0.76 sec, wall time      0.05 sec
shape (1385, 2688)
1st memory: 471.9 MiB
eri1 (1385, 4656)
eri1 (1385, 4656)
2nd memory: 371.8 MiB

========================
iter = 10  energy = -2065.279204 energy diff = 0.001253
multiplicity <S^2> : Reference = 3.3870358 Response = 3.386979 Projector = 3.3869222
eri1 (1385, 4656)
eri1 (1385, 4656)
    CPU time for making amplitude: integral transform      0.85 sec, wall time      0.06 sec
shape (1385, 2688)
1st memory: 493.5 MiB
eri1 (1385, 4656)
eri1 (1385, 4656)
2nd memory: 371.1 MiB

========================
iter = 11  energy = -2065.288344 energy diff = 0.009139
multiplicity <S^2> : Reference = 3.4041178 Response = 3.4039511 Projector = 3.4037844
eri1 (1385, 4656)
eri1 (1385, 4656)
    CPU time for making amplitude: integral transform      0.90 sec, wall time      0.06 sec
shape (1385, 2688)
1st memory: 471.9 MiB
eri1 (1385, 4656)
eri1 (1385, 4656)
2nd memory: 370.5 MiB

========================
iter = 12  energy = -2065.297025 energy diff = 0.008681
multiplicity <S^2> : Reference = 3.3896173 Response = 3.3892102 Projector = 3.3888031
eri1 (1385, 4656)
eri1 (1385, 4656)
    CPU time for making amplitude: integral transform      0.97 sec, wall time      0.07 sec
shape (1385, 2688)
1st memory: 493.4 MiB
eri1 (1385, 4656)
eri1 (1385, 4656)
2nd memory: 371.8 MiB

========================
iter = 13  energy = -2065.300088 energy diff = 0.003063
multiplicity <S^2> : Reference = 3.3823274 Response = 3.3822631 Projector = 3.3821989
eri1 (1385, 4656)
eri1 (1385, 4656)
    CPU time for making amplitude: integral transform      0.97 sec, wall time      0.06 sec
shape (1385, 2688)
1st memory: 471.9 MiB
eri1 (1385, 4656)
eri1 (1385, 4656)
2nd memory: 393.0 MiB

========================
iter = 14  energy = -2065.304507 energy diff = 0.004419
multiplicity <S^2> : Reference = 3.3615165 Response = 3.361419 Projector = 3.3613214
eri1 (1385, 4656)
eri1 (1385, 4656)
    CPU time for making amplitude: integral transform      0.82 sec, wall time      0.06 sec
shape (1385, 2688)
1st memory: 493.4 MiB
eri1 (1385, 4656)
eri1 (1385, 4656)
2nd memory: 368.2 MiB

========================
iter = 15  energy = -2065.299828 energy diff = 0.004680
multiplicity <S^2> : Reference = 3.3816937 Response = 3.3815383 Projector = 3.3813829
eri1 (1385, 4656)
eri1 (1385, 4656)
    CPU time for making amplitude: integral transform      0.92 sec, wall time      0.06 sec
shape (1385, 2688)
1st memory: 471.2 MiB
eri1 (1385, 4656)
eri1 (1385, 4656)
2nd memory: 367.4 MiB

========================
iter = 16  energy = -2065.299287 energy diff = 0.000541
multiplicity <S^2> : Reference = 3.3882587 Response = 3.3879476 Projector = 3.3876365
eri1 (1385, 4656)
eri1 (1385, 4656)
    CPU time for making amplitude: integral transform      0.88 sec, wall time      0.06 sec
shape (1385, 2688)
1st memory: 492.9 MiB
eri1 (1385, 4656)
eri1 (1385, 4656)
2nd memory: 368.2 MiB

========================
iter = 17  energy = -2065.292040 energy diff = 0.007246
multiplicity <S^2> : Reference = 3.4751445 Response = 3.475086 Projector = 3.4750274
eri1 (1385, 4656)
eri1 (1385, 4656)
    CPU time for making amplitude: integral transform      0.77 sec, wall time      0.05 sec
shape (1385, 2688)
1st memory: 471.4 MiB
eri1 (1385, 4656)
eri1 (1385, 4656)
2nd memory: 370.4 MiB

========================
iter = 18  energy = -2065.288044 energy diff = 0.003997
multiplicity <S^2> : Reference = 3.6213068 Response = 3.6212317 Projector = 3.6211566
eri1 (1385, 4656)
eri1 (1385, 4656)
    CPU time for making amplitude: integral transform      0.82 sec, wall time      0.05 sec
shape (1385, 2688)
1st memory: 492.8 MiB
eri1 (1385, 4656)
eri1 (1385, 4656)
2nd memory: 370.5 MiB

========================
iter = 19  energy = -2065.288869 energy diff = 0.000826
multiplicity <S^2> : Reference = 3.6472822 Response = 3.6474136 Projector = 3.647545
eri1 (1385, 4656)
eri1 (1385, 4656)
    CPU time for making amplitude: integral transform      0.67 sec, wall time      0.05 sec
shape (1385, 2688)
1st memory: 471.5 MiB
eri1 (1385, 4656)
eri1 (1385, 4656)
2nd memory: 371.1 MiB

========================
iter = 20  energy = -2065.293132 energy diff = 0.004263
multiplicity <S^2> : Reference = 3.662097 Response = 3.661963 Projector = 3.661829
eri1 (1385, 4656)
eri1 (1385, 4656)
    CPU time for making amplitude: integral transform      0.81 sec, wall time      0.05 sec
shape (1385, 2688)
1st memory: 493.4 MiB
eri1 (1385, 4656)
eri1 (1385, 4656)
2nd memory: 393.0 MiB

========================
iter = 21  energy = -2065.299567 energy diff = 0.006435
multiplicity <S^2> : Reference = 3.6656116 Response = 3.6652945 Projector = 3.6649774
eri1 (1385, 4656)
eri1 (1385, 4656)
    CPU time for making amplitude: integral transform      0.70 sec, wall time      0.05 sec
shape (1385, 2688)
1st memory: 471.3 MiB
eri1 (1385, 4656)
eri1 (1385, 4656)
2nd memory: 370.3 MiB

========================
iter = 22  energy = -2065.308495 energy diff = 0.008928
multiplicity <S^2> : Reference = 3.6736277 Response = 3.673403 Projector = 3.6731782
eri1 (1385, 4656)
eri1 (1385, 4656)
    CPU time for making amplitude: integral transform      0.77 sec, wall time      0.05 sec
shape (1385, 2688)
1st memory: 492.4 MiB
eri1 (1385, 4656)
eri1 (1385, 4656)
2nd memory: 392.0 MiB

========================
iter = 23  energy = -2065.315213 energy diff = 0.006718
multiplicity <S^2> : Reference = 3.6838601 Response = 3.6840069 Projector = 3.6841537
eri1 (1385, 4656)
eri1 (1385, 4656)
    CPU time for making amplitude: integral transform      0.76 sec, wall time      0.05 sec
shape (1385, 2688)
1st memory: 471.8 MiB
eri1 (1385, 4656)
eri1 (1385, 4656)
2nd memory: 392.8 MiB

========================
iter = 24  energy = -2065.317872 energy diff = 0.002659
multiplicity <S^2> : Reference = 3.7105839 Response = 3.7109616 Projector = 3.7113393
eri1 (1385, 4656)
eri1 (1385, 4656)
    CPU time for making amplitude: integral transform      0.79 sec, wall time      0.05 sec
shape (1385, 2688)
1st memory: 492.7 MiB
eri1 (1385, 4656)
eri1 (1385, 4656)
2nd memory: 392.3 MiB

========================
iter = 25  energy = -2065.316579 energy diff = 0.001293
multiplicity <S^2> : Reference = 3.7240448 Response = 3.7242001 Projector = 3.7243553
eri1 (1385, 4656)
eri1 (1385, 4656)
    CPU time for making amplitude: integral transform      0.80 sec, wall time      0.05 sec
shape (1385, 2688)
1st memory: 471.9 MiB
eri1 (1385, 4656)
eri1 (1385, 4656)
2nd memory: 371.1 MiB

========================
iter = 26  energy = -2065.317044 energy diff = 0.000466
multiplicity <S^2> : Reference = 3.7302503 Response = 3.7302261 Projector = 3.7302019
eri1 (1385, 4656)
eri1 (1385, 4656)
    CPU time for making amplitude: integral transform      0.85 sec, wall time      0.06 sec
shape (1385, 2688)
1st memory: 493.5 MiB
eri1 (1385, 4656)
eri1 (1385, 4656)
2nd memory: 371.0 MiB

========================
iter = 27  energy = -2065.316725 energy diff = 0.000319
multiplicity <S^2> : Reference = 3.7256003 Response = 3.7258398 Projector = 3.7260792
eri1 (1385, 4656)
eri1 (1385, 4656)
    CPU time for making amplitude: integral transform      0.74 sec, wall time      0.05 sec
shape (1385, 2688)
1st memory: 471.3 MiB
eri1 (1385, 4656)
eri1 (1385, 4656)
2nd memory: 370.4 MiB

========================
iter = 28  energy = -2065.316731 energy diff = 0.000006
multiplicity <S^2> : Reference = 3.7257042 Response = 3.7259436 Projector = 3.7261829

UOB-MP2 has converged
UOB-MP2 energy =  -2065.3167305495454


******** <class 'pyscf.scf.uhf.UHF'> ********
method = UHF
initial guess = minao
damping factor = 0
level_shift factor = 0
DIIS = <class 'pyscf.scf.diis.CDIIS'>
diis_start_cycle = 1
diis_space = 8
SCF conv_tol = 1e-09
SCF conv_tol_grad = None
SCF max_cycles = 50
direct_scf = True
direct_scf_tol = 1e-13
chkfile to save SCF result = /home/ltkoanh/Al_B2LYP_6311_Gd_Cluster/Cluster/Al16-cation-doublet/tmpc4emawcd
max_memory 4000 MB (current use 267 MB)
number electrons alpha = 68  beta = 67
Set gradient conv threshold to 3.16228e-05
init E= -2061.96224811506
  alpha nocc = 68  HOMO = -0.259940257084008  LUMO = -0.254706871450865
  beta  nocc = 67  HOMO = -0.314317396442414  LUMO = -0.259940257084008

WARN: system HOMO -0.259940257084008 >= system LUMO -0.259940257084008

cycle= 1 E= -2061.19876801537  delta_E= 0.763  |g|= 1.18  |ddm|= 3.34
  alpha nocc = 68  HOMO = 0.0554615878808219  LUMO = 0.0908020432052438
  beta  nocc = 67  HOMO = 0.0264094260270487  LUMO = 0.0612316915918813
cycle= 2 E= -2042.77301002887  delta_E= 18.4  |g|= 2.39  |ddm|= 6.59
  alpha nocc = 68  HOMO = -0.0492321971599322  LUMO = -0.031862505470582
  beta  nocc = 67  HOMO = -0.0536458267904744  LUMO = -0.0456645716510149
cycle= 3 E= -2055.95980454394  delta_E= -13.2  |g|= 2.79  |ddm|=  5.8
  alpha nocc = 68  HOMO = -0.097994236226282  LUMO = -0.0764307263471802
  beta  nocc = 67  HOMO = -0.0886322493810403  LUMO = -0.0643322207936856
cycle= 4 E= -2064.00705882572  delta_E= -8.05  |g|= 0.576  |ddm|= 3.15
  alpha nocc = 68  HOMO = -0.0832150928406321  LUMO = -0.0771048735400669
  beta  nocc = 67  HOMO = -0.0794814100642602  LUMO = -0.0720178264751188
cycle= 5 E= -2058.08770926473  delta_E= 5.92  |g|= 2.05  |ddm|= 3.35
  alpha nocc = 68  HOMO = -0.193190563408285  LUMO = -0.0766816212932899
  beta  nocc = 67  HOMO = -0.174076546452683  LUMO = -0.0782946604634192
cycle= 6 E= -2064.4057277381  delta_E= -6.32  |g|= 0.334  |ddm|= 3.09
  alpha nocc = 68  HOMO = -0.169392209115757  LUMO = -0.0393908289823241
  beta  nocc = 67  HOMO = -0.159937986961941  LUMO = -0.0304711350166012
cycle= 7 E= -2064.50870580196  delta_E= -0.103  |g|= 0.256  |ddm|= 0.744
  alpha nocc = 68  HOMO = -0.199086646685443  LUMO = -0.0620527651520934
  beta  nocc = 67  HOMO = -0.194974521979306  LUMO = -0.0657689834670918
cycle= 8 E= -2064.57346920668  delta_E= -0.0648  |g|= 0.192  |ddm|= 0.561
  alpha nocc = 68  HOMO = -0.197055116684832  LUMO = -0.0533830740227591
  beta  nocc = 67  HOMO = -0.193632580840057  LUMO = -0.0391993090463296
cycle= 9 E= -2064.62902066796  delta_E= -0.0556  |g|= 0.169  |ddm|= 0.483
  alpha nocc = 68  HOMO = -0.194095254775749  LUMO = -0.0547170886761355
  beta  nocc = 67  HOMO = -0.190853144593295  LUMO = -0.0358898326823082
cycle= 10 E= -2064.64827272422  delta_E= -0.0193  |g|= 0.151  |ddm|= 0.127
  alpha nocc = 68  HOMO = -0.18401909670714  LUMO = -0.0517210984174181
  beta  nocc = 67  HOMO = -0.186905356227192  LUMO = -0.0363322534958151
cycle= 11 E= -2064.69858100282  delta_E= -0.0503  |g|= 0.102  |ddm|= 0.373
  alpha nocc = 68  HOMO = -0.183531884123382  LUMO = -0.0427090553723922
  beta  nocc = 67  HOMO = -0.18959489149823  LUMO = -0.02250113598242
cycle= 12 E= -2064.73153360258  delta_E= -0.033  |g|= 0.0931  |ddm|= 0.311
  alpha nocc = 68  HOMO = -0.180741743977471  LUMO = -0.0324734483297059
  beta  nocc = 67  HOMO = -0.188268831362103  LUMO = -0.016515621109858
cycle= 13 E= -2064.75913665874  delta_E= -0.0276  |g|= 0.0902  |ddm|= 0.276
  alpha nocc = 68  HOMO = -0.178438102845438  LUMO = -0.0181553405369551
  beta  nocc = 67  HOMO = -0.188964307145091  LUMO = -0.0120942716660655
cycle= 14 E= -2064.79510569235  delta_E= -0.036  |g|= 0.0845  |ddm|= 0.359
  alpha nocc = 68  HOMO = -0.191129027679699  LUMO = -0.0212532216675366
  beta  nocc = 67  HOMO = -0.178798765828593  LUMO = -0.0148964830778846
cycle= 15 E= -2064.8130712127  delta_E= -0.018  |g|= 0.103  |ddm|= 0.345
  alpha nocc = 68  HOMO = -0.181245561199179  LUMO = -0.0182238569825415
  beta  nocc = 67  HOMO = -0.188876057503253  LUMO = -0.00812280603811881
cycle= 16 E= -2064.7963978279  delta_E= 0.0167  |g|= 0.0833  |ddm|= 0.412
  alpha nocc = 68  HOMO = -0.17507950129472  LUMO = -0.0162155073907807
  beta  nocc = 67  HOMO = -0.189355368264764  LUMO = -0.00557378902257573
cycle= 17 E= -2064.80503942921  delta_E= -0.00864  |g|= 0.0646  |ddm|= 0.256
  alpha nocc = 68  HOMO = -0.17289700222733  LUMO = -0.0227695800779489
  beta  nocc = 67  HOMO = -0.187834074284891  LUMO = -0.00572746273089001
cycle= 18 E= -2064.81457388671  delta_E= -0.00953  |g|= 0.0658  |ddm|= 0.173
  alpha nocc = 68  HOMO = -0.171016524987677  LUMO = -0.0221424034860383
  beta  nocc = 67  HOMO = -0.192357643550229  LUMO = -0.00582549897476373
cycle= 19 E= -2064.80774549503  delta_E= 0.00683  |g|= 0.0609  |ddm|= 0.158
  alpha nocc = 68  HOMO = -0.168072377204876  LUMO = -0.0163716957721984
  beta  nocc = 67  HOMO = -0.20022084481197  LUMO = -0.00263019548676128
cycle= 20 E= -2064.80453020067  delta_E= 0.00322  |g|= 0.0563  |ddm|= 0.168
  alpha nocc = 68  HOMO = -0.158050126549122  LUMO = -0.00985969650349684
  beta  nocc = 67  HOMO = -0.208091458012905  LUMO = -0.00295837654385563
cycle= 21 E= -2064.81186107018  delta_E= -0.00733  |g|= 0.0472  |ddm|= 0.266
  alpha nocc = 68  HOMO = -0.152431253648676  LUMO = -0.00591819686831837
  beta  nocc = 67  HOMO = -0.20898552727023  LUMO = 0.0006224553158125
cycle= 22 E= -2064.81885476553  delta_E= -0.00699  |g|= 0.0448  |ddm|= 0.272
  alpha nocc = 68  HOMO = -0.151895226683133  LUMO = -0.00615167157996738
  beta  nocc = 67  HOMO = -0.208905189146312  LUMO = 0.00238023451041528
cycle= 23 E= -2064.82230052286  delta_E= -0.00345  |g|= 0.0453  |ddm|= 0.097
  alpha nocc = 68  HOMO = -0.16194316682081  LUMO = 0.00021314358724498
  beta  nocc = 67  HOMO = -0.213300691446378  LUMO = 0.000944531591414732
cycle= 24 E= -2064.8140305768  delta_E= 0.00827  |g|= 0.0435  |ddm|= 0.198
  alpha nocc = 68  HOMO = -0.153989261520476  LUMO = -0.00442966176553791
  beta  nocc = 67  HOMO = -0.212477472719109  LUMO = 0.000446087342422621
cycle= 25 E= -2064.81604409646  delta_E= -0.00201  |g|= 0.0449  |ddm|= 0.114
  alpha nocc = 68  HOMO = -0.155013239306768  LUMO = -0.00452815351428995
  beta  nocc = 67  HOMO = -0.21254381779806  LUMO = 0.000541451602403396
cycle= 26 E= -2064.81670937912  delta_E= -0.000665  |g|= 0.0464  |ddm|= 0.0791
  alpha nocc = 68  HOMO = -0.159833690427844  LUMO = 0.00319868373232953
  beta  nocc = 67  HOMO = -0.214514811068526  LUMO = -0.00137508087448756
cycle= 27 E= -2064.80879464815  delta_E= 0.00791  |g|= 0.0422  |ddm|= 0.215
  alpha nocc = 68  HOMO = -0.152973023487058  LUMO = 0.00170154486787006
  beta  nocc = 67  HOMO = -0.214252874230505  LUMO = -0.000779146095284414
cycle= 28 E= -2064.80925380538  delta_E= -0.000459  |g|= 0.0366  |ddm|= 0.0974
  alpha nocc = 68  HOMO = -0.154021469401091  LUMO = 0.00330677571763474
  beta  nocc = 67  HOMO = -0.216008265866712  LUMO = -0.0106171953289721
cycle= 29 E= -2064.80946559831  delta_E= -0.000212  |g|= 0.0342  |ddm|= 0.283
  alpha nocc = 68  HOMO = -0.150180759244494  LUMO = 0.0012634641926582
  beta  nocc = 67  HOMO = -0.214753449119893  LUMO = -0.0114338861003608
cycle= 30 E= -2064.81217265728  delta_E= -0.00271  |g|= 0.0343  |ddm|= 0.117
  alpha nocc = 68  HOMO = -0.148447888686928  LUMO = 0.00122647799633413
  beta  nocc = 67  HOMO = -0.214886057106225  LUMO = -0.00901488268449108
cycle= 31 E= -2064.8124965207  delta_E= -0.000324  |g|= 0.0342  |ddm|= 0.0616
  alpha nocc = 68  HOMO = -0.148433613319864  LUMO = 0.00152288194864914
  beta  nocc = 67  HOMO = -0.215465765452563  LUMO = -0.00813904467915799
cycle= 32 E= -2064.81297127951  delta_E= -0.000475  |g|= 0.0341  |ddm|= 0.0754
  alpha nocc = 68  HOMO = -0.146470610040754  LUMO = -0.000278916477676343
  beta  nocc = 67  HOMO = -0.214520888480176  LUMO = -0.00710845977175005
cycle= 33 E= -2064.81449418713  delta_E= -0.00152  |g|= 0.0345  |ddm|= 0.064
  alpha nocc = 68  HOMO = -0.145808110418884  LUMO = -0.000501214039071332
  beta  nocc = 67  HOMO = -0.214116821230867  LUMO = -0.00645676643105534
cycle= 34 E= -2064.81476346297  delta_E= -0.000269  |g|= 0.0348  |ddm|= 0.0308
  alpha nocc = 68  HOMO = -0.146251474416519  LUMO = -0.000190442821707218
  beta  nocc = 67  HOMO = -0.214052939704364  LUMO = -0.0062573213370992
cycle= 35 E= -2064.81430378968  delta_E= 0.00046  |g|= 0.0346  |ddm|= 0.0301
  alpha nocc = 68  HOMO = -0.145879540279052  LUMO = -0.000104565839316119
  beta  nocc = 67  HOMO = -0.214323382547164  LUMO = -0.00298528625382707
cycle= 36 E= -2064.81639139484  delta_E= -0.00209  |g|= 0.0348  |ddm|= 0.0733
  alpha nocc = 68  HOMO = -0.145885094064742  LUMO = -0.000205482089266998
  beta  nocc = 67  HOMO = -0.214503382542845  LUMO = -0.00332179902679822
cycle= 37 E= -2064.81680522935  delta_E= -0.000414  |g|= 0.0349  |ddm|= 0.0223
  alpha nocc = 68  HOMO = -0.146896539361781  LUMO = 0.000795352374056186
  beta  nocc = 67  HOMO = -0.214430956954568  LUMO = -0.0037627832921834
cycle= 38 E= -2064.81338806484  delta_E= 0.00342  |g|= 0.0334  |ddm|= 0.14
  alpha nocc = 68  HOMO = -0.145102770702072  LUMO = -0.0010722948121945
  beta  nocc = 67  HOMO = -0.213392063135717  LUMO = -0.00580148800087149
cycle= 39 E= -2064.81605234631  delta_E= -0.00266  |g|= 0.033  |ddm|= 0.154
  alpha nocc = 68  HOMO = -0.144185319680072  LUMO = -0.00177893478212519
  beta  nocc = 67  HOMO = -0.213691373366525  LUMO = -0.00674858067321256
cycle= 40 E= -2064.81748234715  delta_E= -0.00143  |g|= 0.0331  |ddm|= 0.0597
  alpha nocc = 68  HOMO = -0.144416824559202  LUMO = -0.0015138740936327
  beta  nocc = 67  HOMO = -0.213316435258709  LUMO = -0.00643735377458556
cycle= 41 E= -2064.81680414548  delta_E= 0.000678  |g|= 0.0328  |ddm|= 0.0563
  alpha nocc = 68  HOMO = -0.143831699070113  LUMO = -0.0028167698043803
  beta  nocc = 67  HOMO = -0.212185625661356  LUMO = -0.00498398960746919
cycle= 42 E= -2064.81769784212  delta_E= -0.000894  |g|= 0.0328  |ddm|= 0.0897
  alpha nocc = 68  HOMO = -0.143901549148195  LUMO = -0.00316836639811213
  beta  nocc = 67  HOMO = -0.211829380237824  LUMO = -0.00472985550911686
cycle= 43 E= -2064.81798328533  delta_E= -0.000285  |g|= 0.0328  |ddm|= 0.0182
  alpha nocc = 68  HOMO = -0.144015768207921  LUMO = -0.00290850643799857
  beta  nocc = 67  HOMO = -0.211973041765215  LUMO = -0.00521159454812047
cycle= 44 E= -2064.81782053456  delta_E= 0.000163  |g|= 0.0327  |ddm|= 0.0129
  alpha nocc = 68  HOMO = -0.144345495469383  LUMO = -0.00501038989964389
  beta  nocc = 67  HOMO = -0.20988642392804  LUMO = -0.00436092667043055
cycle= 45 E= -2064.81987128843  delta_E= -0.00205  |g|= 0.0339  |ddm|= 0.0869
  alpha nocc = 68  HOMO = -0.144573306987099  LUMO = -0.000268534840152941
  beta  nocc = 67  HOMO = -0.212281970092387  LUMO = -0.00882224687661951
cycle= 46 E= -2064.81644967433  delta_E= 0.00342  |g|= 0.0329  |ddm|= 0.209
  alpha nocc = 68  HOMO = -0.14576787026942  LUMO = -0.000250331164376085
  beta  nocc = 67  HOMO = -0.214116161964528  LUMO = -0.0118636686984659
cycle= 47 E= -2064.81606096971  delta_E= 0.000389  |g|= 0.0326  |ddm|= 0.122
  alpha nocc = 68  HOMO = -0.147213875356579  LUMO = -0.00181124070544207
  beta  nocc = 67  HOMO = -0.214588570222512  LUMO = -0.0129826248142067
cycle= 48 E= -2064.81527397946  delta_E= 0.000787  |g|= 0.0329  |ddm|= 0.0449
  alpha nocc = 68  HOMO = -0.147486940114161  LUMO = -0.0021054185633213
  beta  nocc = 67  HOMO = -0.214967723971868  LUMO = -0.0133363256655169
cycle= 49 E= -2064.81413121667  delta_E= 0.00114  |g|= 0.0325  |ddm|= 0.0519
  alpha nocc = 68  HOMO = -0.146732284920503  LUMO = -0.004265729076009
  beta  nocc = 67  HOMO = -0.214943560514661  LUMO = -0.0150865529448545
cycle= 50 E= -2064.81403299747  delta_E= 9.82e-05  |g|= 0.0317  |ddm|= 0.0679
SCF not converged.
SCF energy = -2064.81403299747 after 50 cycles  <S^2> = 3.2619931  2S+1 = 3.7480625
